 +-------------------------------------------------+
 |                                                 |
 |      CCC   AA    SSS  TTTTT  EEEEE  PPPP        |
 |     C     A  A  S       T    E      P   P       |
 |     C     AAAA   SS     T    EEE    PPPP        |
 |     C     A  A     S    T    E      P           |
 |      CCC  A  A  SSS     T    EEEEE  P           |
 |                                                 |
 +-------------------------------------------------+
 |                                                 |
 | Welcome to Academic Release CASTEP version 17.2 |          
 | Ab Initio Total Energy Program                  |
 |                                                 |
 | Authors:                                        |
 | M. Segall, M. Probert, C. Pickard, P. Hasnip,   |
 | S. Clark, K. Refson, J. R. Yates, M. Payne      |
 |                                                 |
 | Contributors:                                   |
 | P. Lindan, P. Haynes, J. White, V. Milman,      |
 | N. Govind, M. Gibson, P. Tulip, V. Cocula,      |
 | B. Montanari, D. Quigley, M. Glover,            |
 | L. Bernasconi, A. Perlov, M. Plummer,           |
 | E. McNellis, J. Meyer, J. Gale, D. Jochym       |
 | J. Aarons, B. Walker, R. Gillen, D. Jones       |
 | T. Green, I. J. Bush, C. J. Armstrong,          |
 | E. J. Higgins, E. L. Brown, M. S. McFly,        |
 | J. Wilkins, B-C. Shih                           |
 |                                                 |
 | Copyright (c) 2000 - 2016                       |
 |                                                 |
 |     Distributed under the terms of an           |
 |     Agreement between the United Kingdom        |
 |     Car-Parrinello (UKCP) Consortium,           |
 |     Daresbury Laboratory and Accelrys, Inc.     |
 |                                                 |
 | Please cite                                     |
 |                                                 |
 |     "First principles methods using CASTEP"     |
 |                                                 |
 |         Zeitschrift fuer Kristallographie       |
 |           220(5-6) pp. 567-570 (2005)           |
 |                                                 |
 | S. J. Clark, M. D. Segall, C. J. Pickard,       |
 | P. J. Hasnip, M. J. Probert, K. Refson,         |
 | M. C. Payne                                     |
 |                                                 |
 |       in all publications arising from          |
 |              your use of CASTEP                 |
 |                                                 |
 +-------------------------------------------------+


 Compiled for linux_x86_64_gfortran4.9 on Thu, 13 Apr 2017 17:36:26 +0100
 from code version dcaebbd29535+  Fri, 28 Oct 2016 15:46:39 +0100
 Compiler: GNU Fortran 4.9.2; Optimisation: fast
 MATHLIBS: default (LAPACK version 3.5.0)
 FFT Lib : default
 Fundamental constants values: CODATA 2010

 Run started: Thu, 20 Apr 2017 14:24:03 +0100

 Pseudo atomic calculation performed for O 2s2 2p4

 Converged in 25 iterations to a total energy of -429.5309 eV


 Pseudo atomic calculation performed for Si 3s2 3p2

 Converged in 16 iterations to a total energy of -101.9015 eV

 Calculation not parallelised.

 ************************************ Title ************************************
 

 ***************************** General Parameters ******************************
  
 output verbosity                               : normal  (1)
 write checkpoint data to                       : quartz_alpha.check
 type of calculation                            : geometry optimization
 stress calculation                             : on
 density difference calculation                 : off
 electron localisation func (ELF) calculation   : off
 Hirshfeld analysis                             : off
 unlimited duration calculation
 timing information                             : on
 memory usage estimate                          : on
 write final potential to formatted file        : off
 write final density to formatted file          : off
 write BibTeX reference list                    : on
 write OTFG pseudopotential files               : on
 write electrostatic potential file             : on
 write bands file                               : on
 checkpoint writing                             : both castep_bin and check files
  
 output         length unit                     : A
 output           mass unit                     : amu
 output           time unit                     : ps
 output         charge unit                     : e
 output           spin unit                     : hbar/2
 output         energy unit                     : eV
 output          force unit                     : eV/A
 output       velocity unit                     : A/ps
 output       pressure unit                     : GPa
 output     inv_length unit                     : 1/A
 output      frequency unit                     : cm-1
 output force constant unit                     : eV/A**2
 output         volume unit                     : A**3
 output   IR intensity unit                     : (D/A)**2/amu
 output         dipole unit                     : D
 output         efield unit                     : eV/A/e
 output        entropy unit                     : J/mol/K
  
 wavefunctions paging                           : none
 random number generator seed                   : randomised (142403362)
 data distribution                              : optimal for this architecture
 optimization strategy                          : maximize speed(+++)

 *********************** Exchange-Correlation Parameters ***********************
  
 using functional                               : Perdew Burke Ernzerhof
 relativistic treatment                         : Koelling-Harmon
 DFT+D: Semi-empirical dispersion correction    : off

 ************************* Pseudopotential Parameters **************************
  
 pseudopotential representation                 : reciprocal space
 <beta|phi> representation                      : reciprocal space
 spin-orbit coupling                            : off

 **************************** Basis Set Parameters *****************************
  
 basis set accuracy                             : FINE
 plane wave basis set cut-off                   :   340.0000   eV
 size of standard grid                          :     2.0000
 size of   fine   gmax                          :    18.8933   1/A
 largest prime factor in FFT                    :          5
 finite basis set correction                    : automatic
 number of sample energies                      :          3
           sample  spacing                      :     5.0000   eV

 **************************** Electronic Parameters ****************************
  
 number of  electrons                           :  48.00    
 net charge of system                           :  0.000    
 treating system as non-spin-polarized
 number of bands                                :         29

 ********************* Electronic Minimization Parameters **********************
  
 Method: Treating system as metallic with density mixing treatment of electrons,
         and number of  SD  steps               :          1
         and number of  CG  steps               :          4
  
 total energy / atom convergence tol.           : 0.1000E-05   eV
 eigen-energy convergence tolerance             : 0.3103E-06   eV
 max force / atom convergence tol.              : ignored
 convergence tolerance window                   :          3   cycles
 max. number of SCF cycles                      :        100
 number of fixed-spin iterations                :         10
 smearing scheme                                : Gaussian
 smearing width                                 : 0.1000       eV
 Fermi energy convergence tolerance             : 0.2721E-13   eV
 periodic dipole correction                     : NONE

 ************************** Density Mixing Parameters **************************
  
 density-mixing scheme                          : Pulay
 max. length of mixing history                  :         20
 charge density mixing amplitude                : 0.5000    
 charge density mixing g-vector                 :  1.500       1/A

 ********************** Geometry Optimization Parameters ***********************
  
 optimization method                            : BFGS
 variable cell method                           : fixed basis quality
 max. number of steps                           :        100
 estimated bulk modulus                         :  500.0       GPa
 estimated <frequency>                          :  1668.       cm-1
 geom line minimiser                            : on
 with line minimiser tolerance                  :     0.4000
 total energy convergence tolerance             : 0.1000E-04   eV/atom
        max ionic |force| tolerance             : 0.3000E-01   eV/A
 max ionic |displacement| tolerance             : 0.1000E-02   A
   max |stress component| tolerance             : 0.5000E-01   GPa
 convergence tolerance window                   :          2   steps
 backup results every                           :          5   steps
 write geom trajectory file                     : on

 *******************************************************************************
  

                           -------------------------------
                                      Unit Cell
                           -------------------------------
        Real Lattice(A)                      Reciprocal Lattice(1/A)
   4.2521812  -2.4549980   0.0000000        1.4776382   0.0000000   0.0000000
   0.0000000   4.9099959   0.0000000        0.7388191   1.2796722   0.0000000
   0.0000000   0.0000000   5.4020000        0.0000000   0.0000000   1.1631220

                       Lattice parameters(A)       Cell Angles
                    a =    4.909996          alpha =   90.000000
                    b =    4.909996          beta  =   90.000000
                    c =    5.402000          gamma =  120.000000

                       Current cell volume =  112.783994       A**3
                                   density =    1.598213   AMU/A**3
                                           =    2.653896     g/cm^3

                           -------------------------------
                                     Cell Contents
                           -------------------------------
                         Total number of ions in cell =    9
                      Total number of species in cell =    2
                        Max number of any one species =    6

            xxxxxxxxxxxxxxxxxxxxxxxxxxxxxxxxxxxxxxxxxxxxxxxxxxxxxxxxxxxx
            x  Element    Atom        Fractional coordinates of atoms  x
            x            Number           u          v          w      x
            x----------------------------------------------------------x
            x  O            1         0.150179   0.414589   0.116499   x 
            x  O            2        -0.414589  -0.264410   0.783166   x 
            x  O            3         0.264410  -0.150179   0.449833   x 
            x  O            4         0.414589   0.150179  -0.116499   x 
            x  O            5        -0.264410  -0.414589   0.216834   x 
            x  O            6        -0.150179   0.264410   0.550167   x 
            x  Si           1         0.480781   0.480781   0.000000   x 
            x  Si           2        -0.480781  -0.000000   0.666667   x 
            x  Si           3         0.000000  -0.480781   0.333333   x 
            xxxxxxxxxxxxxxxxxxxxxxxxxxxxxxxxxxxxxxxxxxxxxxxxxxxxxxxxxxxx


                         No user defined ionic velocities

                           -------------------------------
                                   Details of Species
                           -------------------------------

                               Mass of species in AMU
                                    O   15.9989996
                                    Si   28.0849991

                          Electric Quadrupole Moment (Barn)
                                    O   -0.0255800 Isotope 17
                                    Si    1.0000000 No Isotope Defined

                          Files used for pseudopotentials:
                                    O O_00PBE.usp
                                    Si Si_00PBE.usp

                           -------------------------------
                              k-Points For BZ Sampling
                           -------------------------------
                       MP grid size for SCF calculation is  6  6  6
                            with an offset of   0.083  0.083  0.000
                       Number of kpoints used =            30

                           -------------------------------
                               Symmetry and Constraints
                           -------------------------------

                      Maximum deviation from symmetry = 0.376003E-14     ANG

                      Number of symmetry operations   =           6
         There are no ionic constraints specified or generated for this cell
                      Point group of crystal =    19: D3, 32, 3 2
                      Space group of crystal =   154: P3_221, P 32 2"

             Set iprint > 1 for details on symmetry rotations/translations

                         Centre of mass is NOT constrained

                         Number of cell constraints= 4
                         Cell constraints are:  1 1 3 0 0 0

                         External pressure/stress (GPa)
                          0.00000   0.00000   0.00000
                                    0.00000   0.00000
                                              0.00000
  
+---------------- MEMORY AND SCRATCH DISK ESTIMATES PER PROCESS --------------+
|                                                     Memory          Disk    |
| Baseline code, static data and system overhead       42.0 MB         0.0 MB |
| BLAS internal memory storage                          0.0 MB         0.0 MB |
| Model and support data                               60.9 MB         0.0 MB |
| Electronic energy minimisation requirements          49.5 MB         0.0 MB |
| Force calculation requirements                        3.7 MB         0.0 MB |
| Stress calculation requirements                       4.7 MB         0.0 MB |
|                                               ----------------------------- |
| Approx. total storage required per process          152.4 MB         0.0 MB |
|                                                                             |
| Requirements will fluctuate during execution and may exceed these estimates |
+-----------------------------------------------------------------------------+
Calculating finite basis set correction with  3 cut-off energies.
Calculating total energy with cut-off of  330.000 eV.
------------------------------------------------------------------------ <-- SCF
SCF loop      Energy           Fermi           Energy gain       Timer   <-- SCF
                               energy          per atom          (sec)   <-- SCF
------------------------------------------------------------------------ <-- SCF
Initial  -2.28192807E+003  0.00000000E+000                         1.60  <-- SCF
      1  -2.83492571E+003  6.93479141E+000   3.14991745E+002       9.39  <-- SCF
      2  -2.96245604E+003 -1.16870354E+000   1.41700363E+001      14.08  <-- SCF
      3  -2.96431080E+003 -9.10930714E-001   2.06085194E-001      18.69  <-- SCF
      4  -2.95490662E+003  2.12338179E+000  -1.04490910E+000      24.80  <-- SCF
      5  -2.95504332E+003  2.08116622E+000   1.51892957E-002      31.21  <-- SCF
      6  -2.95510494E+003  2.32518740E+000   6.84608428E-003      37.89  <-- SCF
      7  -2.95511371E+003  2.32661252E+000   9.74664000E-004      44.24  <-- SCF
      8  -2.95511548E+003  2.34369940E+000   1.96640058E-004      50.84  <-- SCF
      9  -2.95511568E+003  2.34407303E+000   2.19948473E-005      55.52  <-- SCF
     10  -2.95511569E+003  2.34490692E+000   1.43112390E-006      59.85  <-- SCF
     11  -2.95511569E+003  2.34517476E+000   1.97723353E-007      64.05  <-- SCF
     12  -2.95511569E+003  2.34468946E+000   2.90716257E-008      68.60  <-- SCF
------------------------------------------------------------------------ <-- SCF
 
Final energy, E             =  -2955.115693930     eV
Final free energy (E-TS)    =  -2955.115693930     eV
(energies not corrected for finite basis set)
 
NB est. 0K energy (E-0.5TS)      =  -2955.115693930     eV
 
Calculating total energy with cut-off of  335.000 eV.
------------------------------------------------------------------------ <-- SCF
SCF loop      Energy           Fermi           Energy gain       Timer   <-- SCF
                               energy          per atom          (sec)   <-- SCF
------------------------------------------------------------------------ <-- SCF
Initial  -2.95512354E+003  0.00000000E+000                        70.08  <-- SCF
      1  -2.95520033E+003  2.34121098E+000   9.40409937E-003      75.90  <-- SCF
      2  -2.95520040E+003  2.34120954E+000   7.64787700E-006      83.05  <-- SCF
      3  -2.95520032E+003  2.34614126E+000  -8.89622609E-006      90.09  <-- SCF
      4  -2.95520041E+003  2.34422033E+000   1.04334341E-005      94.10  <-- SCF
      5  -2.95520041E+003  2.34451897E+000   2.47763668E-008      98.05  <-- SCF
      6  -2.95520041E+003  2.34483303E+000   2.22025543E-008     101.21  <-- SCF
------------------------------------------------------------------------ <-- SCF
 
Final energy, E             =  -2955.200413913     eV
Final free energy (E-TS)    =  -2955.200413913     eV
(energies not corrected for finite basis set)
 
NB est. 0K energy (E-0.5TS)      =  -2955.200413913     eV
 
Calculating total energy with cut-off of  340.000 eV.
------------------------------------------------------------------------ <-- SCF
SCF loop      Energy           Fermi           Energy gain       Timer   <-- SCF
                               energy          per atom          (sec)   <-- SCF
------------------------------------------------------------------------ <-- SCF
Initial  -2.95520830E+003  0.00000000E+000                       102.19  <-- SCF
      1  -2.95527259E+003  2.34189956E+000   8.02008067E-003     106.41  <-- SCF
      2  -2.95527265E+003  2.34189824E+000   6.59467001E-006     111.51  <-- SCF
      3  -2.95527258E+003  2.34650517E+000  -8.37066850E-006     116.53  <-- SCF
      4  -2.95527266E+003  2.34470479E+000   9.23676886E-006     121.33  <-- SCF
      5  -2.95527266E+003  2.34503570E+000  -8.92174521E-009     126.15  <-- SCF
      6  -2.95527266E+003  2.34532320E+000   4.02662902E-008     130.79  <-- SCF
------------------------------------------------------------------------ <-- SCF
 
Final energy, E             =  -2955.272662068     eV
Final free energy (E-TS)    =  -2955.272662068     eV
(energies not corrected for finite basis set)
 
NB est. 0K energy (E-0.5TS)      =  -2955.272662068     eV
 
 For future reference: finite basis dEtot/dlog(Ecut) =      -5.188226eV
 Total energy corrected for finite basis set =   -2955.271518 eV
 
+---------------- MEMORY AND SCRATCH DISK ESTIMATES PER PROCESS --------------+
|                                                     Memory          Disk    |
| Model and support data                               71.1 MB         0.0 MB |
| Electronic energy minimisation requirements          49.5 MB         0.0 MB |
| Geometry minimisation requirements                   72.5 MB         0.0 MB |
|                                               ----------------------------- |
| Approx. total storage required per process          193.2 MB         0.0 MB |
|                                                                             |
| Requirements will fluctuate during execution and may exceed these estimates |
+-----------------------------------------------------------------------------+
 

 ******************************** Symmetrised Forces ********************************
 *                                                                                  *
 *                           Cartesian components (eV/A)                            *
 * -------------------------------------------------------------------------------- *
 *                         x                    y                    z              *
 *                                                                                  *
 * O               1     -0.00577             -0.14789             -0.01184         *
 * O               2      0.13097              0.06895             -0.01184         *
 * O               3     -0.12519              0.07895             -0.01184         *
 * O               4     -0.13097              0.06895              0.01184         *
 * O               5      0.12519              0.07895              0.01184         *
 * O               6      0.00577             -0.14789              0.01184         *
 * Si              1     -0.70685             -0.40810              0.00000         *
 * Si              2      0.70685             -0.40810              0.00000         *
 * Si              3      0.00000              0.81620              0.00000         *
 *                                                                                  *
 ************************************************************************************

 *********** Symmetrised Stress Tensor ***********
 *                                               *
 *          Cartesian components (GPa)           *
 * --------------------------------------------- *
 *             x             y             z     *
 *                                               *
 *  x     -5.825075      0.000000      0.000000  *
 *  y      0.000000     -5.825075     -0.000000  *
 *  z      0.000000     -0.000000     -6.303052  *
 *                                               *
 *  Pressure:    5.9844                          *
 *                                               *
 *************************************************
 BFGS: finished iteration     0 with enthalpy= -2.95527152E+003 eV
  
 +-----------+-----------------+-----------------+------------+-----+ <-- BFGS
 | Parameter |      value      |    tolerance    |    units   | OK? | <-- BFGS
 +-----------+-----------------+-----------------+------------+-----+ <-- BFGS
 |  dE/ion   |   0.000000E+000 |   1.000000E-005 |         eV | No  | <-- BFGS
 |  |F|max   |   8.162030E-001 |   3.000000E-002 |       eV/A | No  | <-- BFGS
 |  |dR|max  |   0.000000E+000 |   1.000000E-003 |          A | No  | <-- BFGS
 |   Smax    |   6.303052E+000 |   5.000000E-002 |        GPa | No  | <-- BFGS
 +-----------+-----------------+-----------------+------------+-----+ <-- BFGS
  

================================================================================
 Starting BFGS iteration          1 ...
================================================================================
  
 +------------+-------------+-------------+-----------------+ <-- min BFGS
 |    Step    |   lambda    |   F.delta'  |    enthalpy     | <-- min BFGS
 +------------+-------------+-------------+-----------------+ <-- min BFGS
 |  previous  |    0.000000 |    0.314508 |    -2955.271518 | <-- min BFGS
 +------------+-------------+-------------+-----------------+ <-- min BFGS
  

--------------------------------------------------------------------------------
 BFGS: starting iteration         1 with trial guess (lambda=  1.000000)
--------------------------------------------------------------------------------
 
+---------------- MEMORY AND SCRATCH DISK ESTIMATES PER PROCESS --------------+
|                                                     Memory          Disk    |
| Model and support data                               71.8 MB         0.0 MB |
| Electronic energy minimisation requirements          50.5 MB         0.0 MB |
| Geometry minimisation requirements                   74.0 MB         0.0 MB |
|                                               ----------------------------- |
| Approx. total storage required per process          196.3 MB         0.0 MB |
|                                                                             |
| Requirements will fluctuate during execution and may exceed these estimates |
+-----------------------------------------------------------------------------+
 

                           -------------------------------
                                      Unit Cell
                           -------------------------------
        Real Lattice(A)              Reciprocal Lattice(1/A)
   4.2686940  -2.4645316   0.0000000        1.4719222   0.0000000  -0.0000000
  -0.0000000   4.9290633  -0.0000000        0.7359611   1.2747220   0.0000000
   0.0000000  -0.0000000   5.4246994       -0.0000000   0.0000000   1.1582550

                       Lattice parameters(A)       Cell Angles
                    a =    4.929063          alpha =   90.000000
                    b =    4.929063          beta  =   90.000000
                    c =    5.424699          gamma =  120.000000

                Current cell volume =  114.139272 A**3

                           -------------------------------
                                     Cell Contents
                           -------------------------------

            xxxxxxxxxxxxxxxxxxxxxxxxxxxxxxxxxxxxxxxxxxxxxxxxxxxxxxxxxxxxxxxxx
            x  Element         Atom        Fractional coordinates of atoms  x
            x                 Number           u          v          w      x
            x---------------------------------------------------------------x
            x  O                 1         0.150173   0.414439   0.116489   x
            x  O                 2        -0.414439  -0.264266   0.783155   x
            x  O                 3         0.264266  -0.150173   0.449822   x
            x  O                 4         0.414439   0.150173  -0.116489   x
            x  O                 5        -0.264266  -0.414439   0.216845   x
            x  O                 6        -0.150173   0.264266   0.550178   x
            x  Si                1         0.479969   0.479969   0.000000   x
            x  Si                2        -0.479969   0.000000   0.666667   x
            x  Si                3         0.000000  -0.479969   0.333333   x
            xxxxxxxxxxxxxxxxxxxxxxxxxxxxxxxxxxxxxxxxxxxxxxxxxxxxxxxxxxxxxxxxx


------------------------------------------------------------------------ <-- SCF
SCF loop      Energy           Fermi           Energy gain       Timer   <-- SCF
                               energy          per atom          (sec)   <-- SCF
------------------------------------------------------------------------ <-- SCF
Initial  -2.95520064E+003  0.00000000E+000                       136.41  <-- SCF
      1  -2.95541320E+003  1.96923581E+000   1.57423589E-002     143.32  <-- SCF
      2  -2.95541421E+003  1.96922658E+000   1.12113169E-004     148.95  <-- SCF
      3  -2.95531278E+003  2.26662185E+000  -1.12699585E-002     154.08  <-- SCF
      4  -2.95531364E+003  2.24409306E+000   9.58366849E-005     159.24  <-- SCF
      5  -2.95531349E+003  2.24484146E+000  -1.71302945E-005     164.51  <-- SCF
      6  -2.95531351E+003  2.24600755E+000   2.92771453E-006     168.23  <-- SCF
      7  -2.95531354E+003  2.24649740E+000   2.71831812E-006     171.65  <-- SCF
      8  -2.95531354E+003  2.24649591E+000   8.23850611E-007     174.90  <-- SCF
      9  -2.95531355E+003  2.24658378E+000   7.66132340E-008     178.10  <-- SCF
------------------------------------------------------------------------ <-- SCF
 
Final energy, E             =  -2955.313545454     eV
Final free energy (E-TS)    =  -2955.313545454     eV
(energies not corrected for finite basis set)
 
NB est. 0K energy (E-0.5TS)      =  -2955.313545454     eV
 

 ******************************** Symmetrised Forces ********************************
 *                                                                                  *
 *                           Cartesian components (eV/A)                            *
 * -------------------------------------------------------------------------------- *
 *                         x                    y                    z              *
 *                                                                                  *
 * O               1      0.00910             -0.03896              0.12690         *
 * O               2      0.02919              0.02736              0.12690         *
 * O               3     -0.03829              0.01160              0.12690         *
 * O               4     -0.02919              0.02736             -0.12690         *
 * O               5      0.03829              0.01160             -0.12690         *
 * O               6     -0.00910             -0.03896             -0.12690         *
 * Si              1     -0.55120             -0.31823              0.00000         *
 * Si              2      0.55120             -0.31823              0.00000         *
 * Si              3      0.00000              0.63647              0.00000         *
 *                                                                                  *
 ************************************************************************************

 *********** Symmetrised Stress Tensor ***********
 *                                               *
 *          Cartesian components (GPa)           *
 * --------------------------------------------- *
 *             x             y             z     *
 *                                               *
 *  x     -3.608277      0.000000     -0.000000  *
 *  y      0.000000     -3.608277      0.000000  *
 *  z     -0.000000      0.000000     -3.486442  *
 *                                               *
 *  Pressure:    3.5677                          *
 *                                               *
 *************************************************
  
 +------------+-------------+-------------+-----------------+ <-- min BFGS
 |    Step    |   lambda    |   F.delta'  |    enthalpy     | <-- min BFGS
 +------------+-------------+-------------+-----------------+ <-- min BFGS
 |  previous  |    0.000000 |    0.314508 |    -2955.271518 | <-- min BFGS
 | trial step |    1.000000 |    0.196479 |    -2955.314134 | <-- min BFGS
 +------------+-------------+-------------+-----------------+ <-- min BFGS
  

--------------------------------------------------------------------------------
 BFGS: improving iteration         1 with line minimization (lambda=  2.664669)
--------------------------------------------------------------------------------
 
+---------------- MEMORY AND SCRATCH DISK ESTIMATES PER PROCESS --------------+
|                                                     Memory          Disk    |
| Model and support data                               71.9 MB         0.0 MB |
| Electronic energy minimisation requirements          50.7 MB         0.0 MB |
| Geometry minimisation requirements                   74.2 MB         0.0 MB |
|                                               ----------------------------- |
| Approx. total storage required per process          196.8 MB         0.0 MB |
|                                                                             |
| Requirements will fluctuate during execution and may exceed these estimates |
+-----------------------------------------------------------------------------+
 

                           -------------------------------
                                      Unit Cell
                           -------------------------------
        Real Lattice(A)              Reciprocal Lattice(1/A)
   4.2961825  -2.4804021   0.0000000        1.4625043   0.0000000  -0.0000000
  -0.0000000   4.9608042  -0.0000000        0.7312521   1.2665659   0.0000000
   0.0000000  -0.0000000   5.4624864       -0.0000000   0.0000000   1.1502427

                       Lattice parameters(A)       Cell Angles
                    a =    4.960804          alpha =   90.000000
                    b =    4.960804          beta  =   90.000000
                    c =    5.462486          gamma =  120.000000

                Current cell volume =  116.419350 A**3

                           -------------------------------
                                     Cell Contents
                           -------------------------------

            xxxxxxxxxxxxxxxxxxxxxxxxxxxxxxxxxxxxxxxxxxxxxxxxxxxxxxxxxxxxxxxxx
            x  Element         Atom        Fractional coordinates of atoms  x
            x                 Number           u          v          w      x
            x---------------------------------------------------------------x
            x  O                 1         0.150162   0.414188   0.116471   x
            x  O                 2        -0.414188  -0.264027   0.783138   x
            x  O                 3         0.264027  -0.150162   0.449804   x
            x  O                 4         0.414188   0.150162  -0.116471   x
            x  O                 5        -0.264027  -0.414188   0.216862   x
            x  O                 6        -0.150162   0.264027   0.550196   x
            x  Si                1         0.478619   0.478619   0.000000   x
            x  Si                2        -0.478619   0.000000   0.666667   x
            x  Si                3         0.000000  -0.478619   0.333333   x
            xxxxxxxxxxxxxxxxxxxxxxxxxxxxxxxxxxxxxxxxxxxxxxxxxxxxxxxxxxxxxxxxx


------------------------------------------------------------------------ <-- SCF
SCF loop      Energy           Fermi           Energy gain       Timer   <-- SCF
                               energy          per atom          (sec)   <-- SCF
------------------------------------------------------------------------ <-- SCF
Initial  -2.95504511E+003  0.00000000E+000                       182.01  <-- SCF
      1  -2.95561049E+003  1.62295998E+000   3.29286667E-002     186.59  <-- SCF
      2  -2.95561323E+003  1.62293073E+000   3.04194054E-004     192.91  <-- SCF
      3  -2.95533352E+003  2.11996172E+000  -3.10782881E-002     198.03  <-- SCF
      4  -2.95533566E+003  2.07969185E+000   2.37786410E-004     203.17  <-- SCF
      5  -2.95533518E+003  2.08129537E+000  -5.41404973E-005     209.67  <-- SCF
      6  -2.95533524E+003  2.08331813E+000   6.72473659E-006     215.08  <-- SCF
      7  -2.95533529E+003  2.08413785E+000   6.20297263E-006     220.41  <-- SCF
      8  -2.95533531E+003  2.08413230E+000   1.71437939E-006     225.18  <-- SCF
      9  -2.95533531E+003  2.08430510E+000   2.49493407E-007     229.84  <-- SCF
     10  -2.95533531E+003  2.08430987E+000   1.05351699E-007     234.50  <-- SCF
     11  -2.95533531E+003  2.08430519E+000   2.11116390E-008     239.18  <-- SCF
------------------------------------------------------------------------ <-- SCF
 
Final energy, E             =  -2955.335312857     eV
Final free energy (E-TS)    =  -2955.335312857     eV
(energies not corrected for finite basis set)
 
NB est. 0K energy (E-0.5TS)      =  -2955.335312857     eV
 

 ******************************** Symmetrised Forces ********************************
 *                                                                                  *
 *                           Cartesian components (eV/A)                            *
 * -------------------------------------------------------------------------------- *
 *                         x                    y                    z              *
 *                                                                                  *
 * O               1      0.04104              0.12895              0.33687         *
 * O               2     -0.13219             -0.02893              0.33687         *
 * O               3      0.09115             -0.10001              0.33687         *
 * O               4      0.13219             -0.02893             -0.33687         *
 * O               5     -0.09115             -0.10001             -0.33687         *
 * O               6     -0.04104              0.12895             -0.33687         *
 * Si              1     -0.31331             -0.18089              0.00000         *
 * Si              2      0.31331             -0.18089             -0.00000         *
 * Si              3      0.00000              0.36178              0.00000         *
 *                                                                                  *
 ************************************************************************************

 *********** Symmetrised Stress Tensor ***********
 *                                               *
 *          Cartesian components (GPa)           *
 * --------------------------------------------- *
 *             x             y             z     *
 *                                               *
 *  x     -0.200281      0.000000      0.000000  *
 *  y      0.000000     -0.200281     -0.000000  *
 *  z      0.000000     -0.000000      0.861334  *
 *                                               *
 *  Pressure:   -0.1536                          *
 *                                               *
 *************************************************
  
 +------------+-------------+-------------+-----------------+ <-- min BFGS
 |    Step    |   lambda    |   F.delta'  |    enthalpy     | <-- min BFGS
 +------------+-------------+-------------+-----------------+ <-- min BFGS
 |  previous  |    0.000000 |    0.314508 |    -2955.271518 | <-- min BFGS
 | trial step |    1.000000 |    0.196479 |    -2955.314134 | <-- min BFGS
 |  line step |    2.664669 |    0.011349 |    -2955.334965 | <-- min BFGS
 +------------+-------------+-------------+-----------------+ <-- min BFGS
  
 BFGS: finished iteration     1 with enthalpy= -2.95533496E+003 eV
  
 +-----------+-----------------+-----------------+------------+-----+ <-- BFGS
 | Parameter |      value      |    tolerance    |    units   | OK? | <-- BFGS
 +-----------+-----------------+-----------------+------------+-----+ <-- BFGS
 |  dE/ion   |   7.049681E-003 |   1.000000E-005 |         eV | No  | <-- BFGS
 |  |F|max   |   3.630303E-001 |   3.000000E-002 |       eV/A | No  | <-- BFGS
 |  |dR|max  |   1.072614E-002 |   1.000000E-003 |          A | No  | <-- BFGS
 |   Smax    |   8.613342E-001 |   5.000000E-002 |        GPa | No  | <-- BFGS
 +-----------+-----------------+-----------------+------------+-----+ <-- BFGS
  

================================================================================
 Starting BFGS iteration          2 ...
================================================================================
  
 +------------+-------------+-------------+-----------------+ <-- min BFGS
 |    Step    |   lambda    |   F.delta'  |    enthalpy     | <-- min BFGS
 +------------+-------------+-------------+-----------------+ <-- min BFGS
 |  previous  |    0.000000 |    0.144172 |    -2955.334965 | <-- min BFGS
 +------------+-------------+-------------+-----------------+ <-- min BFGS
  

--------------------------------------------------------------------------------
 BFGS: starting iteration         2 with trial guess (lambda=  1.000000)
--------------------------------------------------------------------------------

                           -------------------------------
                                      Unit Cell
                           -------------------------------
        Real Lattice(A)              Reciprocal Lattice(1/A)
   4.2996301  -2.4823926   0.0000000        1.4613316   0.0000000  -0.0000000
  -0.0000000   4.9647852  -0.0000000        0.7306658   1.2655503   0.0000000
   0.0000000  -0.0000000   5.4631135       -0.0000000   0.0000000   1.1501107

                       Lattice parameters(A)       Cell Angles
                    a =    4.964785          alpha =   90.000000
                    b =    4.964785          beta  =   90.000000
                    c =    5.463113          gamma =  120.000000

                Current cell volume =  116.619665 A**3

                           -------------------------------
                                     Cell Contents
                           -------------------------------

            xxxxxxxxxxxxxxxxxxxxxxxxxxxxxxxxxxxxxxxxxxxxxxxxxxxxxxxxxxxxxxxxx
            x  Element         Atom        Fractional coordinates of atoms  x
            x                 Number           u          v          w      x
            x---------------------------------------------------------------x
            x  O                 1         0.150210   0.414321   0.116788   x
            x  O                 2        -0.414321  -0.264112   0.783455   x
            x  O                 3         0.264112  -0.150210   0.450122   x
            x  O                 4         0.414321   0.150210  -0.116788   x
            x  O                 5        -0.264112  -0.414321   0.216545   x
            x  O                 6        -0.150210   0.264112   0.549878   x
            x  Si                1         0.478102   0.478102   0.000000   x
            x  Si                2        -0.478102   0.000000   0.666667   x
            x  Si                3         0.000000  -0.478102   0.333333   x
            xxxxxxxxxxxxxxxxxxxxxxxxxxxxxxxxxxxxxxxxxxxxxxxxxxxxxxxxxxxxxxxxx


------------------------------------------------------------------------ <-- SCF
SCF loop      Energy           Fermi           Energy gain       Timer   <-- SCF
                               energy          per atom          (sec)   <-- SCF
------------------------------------------------------------------------ <-- SCF
Initial  -2.95533353E+003  0.00000000E+000                       244.49  <-- SCF
      1  -2.95534617E+003  2.02707252E+000   1.24534775E-003     249.84  <-- SCF
      2  -2.95534626E+003  2.02706943E+000   9.15152627E-006     255.19  <-- SCF
      3  -2.95534165E+003  2.06704966E+000  -5.11756920E-004     260.21  <-- SCF
      4  -2.95534121E+003  2.06591137E+000  -4.91318749E-005     265.36  <-- SCF
      5  -2.95534112E+003  2.06852105E+000  -9.26195693E-006     271.64  <-- SCF
      6  -2.95534113E+003  2.06922515E+000   1.22431089E-006     276.37  <-- SCF
      7  -2.95534114E+003  2.06949719E+000   5.67795342E-007     281.07  <-- SCF
      8  -2.95534114E+003  2.06957644E+000   2.39720842E-007     285.39  <-- SCF
------------------------------------------------------------------------ <-- SCF
 
Final energy, E             =  -2955.341142110     eV
Final free energy (E-TS)    =  -2955.341142110     eV
(energies not corrected for finite basis set)
 
NB est. 0K energy (E-0.5TS)      =  -2955.341142110     eV
 

 ******************************** Symmetrised Forces ********************************
 *                                                                                  *
 *                           Cartesian components (eV/A)                            *
 * -------------------------------------------------------------------------------- *
 *                         x                    y                    z              *
 *                                                                                  *
 * O               1      0.05244              0.12399              0.32514         *
 * O               2     -0.13360             -0.01658              0.32514         *
 * O               3      0.08116             -0.10741              0.32514         *
 * O               4      0.13360             -0.01658             -0.32514         *
 * O               5     -0.08116             -0.10741             -0.32514         *
 * O               6     -0.05244              0.12399             -0.32514         *
 * Si              1     -0.28688             -0.16563              0.00000         *
 * Si              2      0.28688             -0.16563              0.00000         *
 * Si              3      0.00000              0.33126              0.00000         *
 *                                                                                  *
 ************************************************************************************

 *********** Symmetrised Stress Tensor ***********
 *                                               *
 *          Cartesian components (GPa)           *
 * --------------------------------------------- *
 *             x             y             z     *
 *                                               *
 *  x      0.029012      0.000000     -0.000000  *
 *  y      0.000000      0.029012     -0.000000  *
 *  z     -0.000000     -0.000000      0.992790  *
 *                                               *
 *  Pressure:   -0.3503                          *
 *                                               *
 *************************************************
  
 +------------+-------------+-------------+-----------------+ <-- min BFGS
 |    Step    |   lambda    |   F.delta'  |    enthalpy     | <-- min BFGS
 +------------+-------------+-------------+-----------------+ <-- min BFGS
 |  previous  |    0.000000 |    0.144172 |    -2955.334965 | <-- min BFGS
 | trial step |    1.000000 |    0.130953 |    -2955.340489 | <-- min BFGS
 +------------+-------------+-------------+-----------------+ <-- min BFGS
  

--------------------------------------------------------------------------------
 BFGS: improving iteration         2 with line minimization (lambda= 10.906353)
--------------------------------------------------------------------------------
 
+---------------- MEMORY AND SCRATCH DISK ESTIMATES PER PROCESS --------------+
|                                                     Memory          Disk    |
| Model and support data                               75.8 MB         0.0 MB |
| Electronic energy minimisation requirements          52.0 MB         0.0 MB |
| Geometry minimisation requirements                   76.1 MB         0.0 MB |
|                                               ----------------------------- |
| Approx. total storage required per process          203.8 MB         0.0 MB |
|                                                                             |
| Requirements will fluctuate during execution and may exceed these estimates |
+-----------------------------------------------------------------------------+
 

                           -------------------------------
                                      Unit Cell
                           -------------------------------
        Real Lattice(A)              Reciprocal Lattice(1/A)
   4.3337841  -2.5021114   0.0000000        1.4498150   0.0000000  -0.0000000
  -0.0000000   5.0042228  -0.0000000        0.7249075   1.2555766   0.0000000
   0.0000000  -0.0000000   5.4693259       -0.0000000   0.0000000   1.1488043

                       Lattice parameters(A)       Cell Angles
                    a =    5.004223          alpha =   90.000000
                    b =    5.004223          beta  =   90.000000
                    c =    5.469326          gamma =  120.000000

                Current cell volume =  118.614483 A**3

                           -------------------------------
                                     Cell Contents
                           -------------------------------

            xxxxxxxxxxxxxxxxxxxxxxxxxxxxxxxxxxxxxxxxxxxxxxxxxxxxxxxxxxxxxxxxx
            x  Element         Atom        Fractional coordinates of atoms  x
            x                 Number           u          v          w      x
            x---------------------------------------------------------------x
            x  O                 1         0.150688   0.415640   0.119934   x
            x  O                 2        -0.415640  -0.264953   0.786600   x
            x  O                 3         0.264953  -0.150688   0.453267   x
            x  O                 4         0.415640   0.150688  -0.119934   x
            x  O                 5        -0.264953  -0.415640   0.213400   x
            x  O                 6        -0.150688   0.264953   0.546733   x
            x  Si                1         0.472982   0.472982   0.000000   x
            x  Si                2        -0.472982   0.000000   0.666667   x
            x  Si                3         0.000000  -0.472982   0.333333   x
            xxxxxxxxxxxxxxxxxxxxxxxxxxxxxxxxxxxxxxxxxxxxxxxxxxxxxxxxxxxxxxxxx


------------------------------------------------------------------------ <-- SCF
SCF loop      Energy           Fermi           Energy gain       Timer   <-- SCF
                               energy          per atom          (sec)   <-- SCF
------------------------------------------------------------------------ <-- SCF
Initial  -2.95406523E+003  0.00000000E+000                       291.26  <-- SCF
      1  -2.95586754E+003  1.48649087E+000   5.85613974E-002     296.73  <-- SCF
      2  -2.95587540E+003  1.48631226E+000   8.72577719E-004     303.88  <-- SCF
      3  -2.95541076E+003  1.91081430E+000  -5.16263004E-002     310.05  <-- SCF
      4  -2.95536474E+003  1.89550949E+000  -5.11337385E-003     316.22  <-- SCF
      5  -2.95535532E+003  1.92176329E+000  -1.04601980E-003     322.13  <-- SCF
      6  -2.95535545E+003  1.92802418E+000   1.39213812E-005     328.09  <-- SCF
      7  -2.95535551E+003  1.93263290E+000   6.98009821E-006     333.03  <-- SCF
      8  -2.95535553E+003  1.93200561E+000   1.91429918E-006     337.10  <-- SCF
      9  -2.95535553E+003  1.93176710E+000   2.26568503E-007     340.88  <-- SCF
     10  -2.95535553E+003  1.93197570E+000  -4.53073158E-008     344.63  <-- SCF
     11  -2.95535553E+003  1.93203081E+000   7.41195107E-009     348.31  <-- SCF
------------------------------------------------------------------------ <-- SCF
 
Final energy, E             =  -2955.355530891     eV
Final free energy (E-TS)    =  -2955.355530891     eV
(energies not corrected for finite basis set)
 
NB est. 0K energy (E-0.5TS)      =  -2955.355530891     eV
 

 ******************************** Symmetrised Forces ********************************
 *                                                                                  *
 *                           Cartesian components (eV/A)                            *
 * -------------------------------------------------------------------------------- *
 *                         x                    y                    z              *
 *                                                                                  *
 * O               1      0.16177              0.07401              0.20512         *
 * O               2     -0.14498              0.10310              0.20512         *
 * O               3     -0.01679             -0.17710              0.20512         *
 * O               4      0.14498              0.10310             -0.20512         *
 * O               5      0.01679             -0.17710             -0.20512         *
 * O               6     -0.16177              0.07401             -0.20512         *
 * Si              1      0.01502              0.00867              0.00000         *
 * Si              2     -0.01502              0.00867              0.00000         *
 * Si              3     -0.00000             -0.01735              0.00000         *
 *                                                                                  *
 ************************************************************************************

 *********** Symmetrised Stress Tensor ***********
 *                                               *
 *          Cartesian components (GPa)           *
 * --------------------------------------------- *
 *             x             y             z     *
 *                                               *
 *  x      2.411348     -0.000000     -0.000000  *
 *  y     -0.000000      2.411348      0.000000  *
 *  z     -0.000000      0.000000      2.319757  *
 *                                               *
 *  Pressure:   -2.3808                          *
 *                                               *
 *************************************************
  
 +------------+-------------+-------------+-----------------+ <-- min BFGS
 |    Step    |   lambda    |   F.delta'  |    enthalpy     | <-- min BFGS
 +------------+-------------+-------------+-----------------+ <-- min BFGS
 |  previous  |    0.000000 |    0.144172 |    -2955.334965 | <-- min BFGS
 | trial step |    1.000000 |    0.130953 |    -2955.340489 | <-- min BFGS
 |  line step |   10.906353 |   -0.012288 |    -2955.354347 | <-- min BFGS
 +------------+-------------+-------------+-----------------+ <-- min BFGS
  
 BFGS: finished iteration     2 with enthalpy= -2.95535435E+003 eV
  
 +-----------+-----------------+-----------------+------------+-----+ <-- BFGS
 | Parameter |      value      |    tolerance    |    units   | OK? | <-- BFGS
 +-----------+-----------------+-----------------+------------+-----+ <-- BFGS
 |  dE/ion   |   2.153581E-003 |   1.000000E-005 |         eV | No  | <-- BFGS
 |  |F|max   |   2.715153E-001 |   3.000000E-002 |       eV/A | No  | <-- BFGS
 |  |dR|max  |   2.820743E-002 |   1.000000E-003 |          A | No  | <-- BFGS
 |   Smax    |   2.411348E+000 |   5.000000E-002 |        GPa | No  | <-- BFGS
 +-----------+-----------------+-----------------+------------+-----+ <-- BFGS
  

================================================================================
 Starting BFGS iteration          3 ...
================================================================================
  
 +------------+-------------+-------------+-----------------+ <-- min BFGS
 |    Step    |   lambda    |   F.delta'  |    enthalpy     | <-- min BFGS
 +------------+-------------+-------------+-----------------+ <-- min BFGS
 |  previous  |    0.000000 |    0.142947 |    -2955.354347 | <-- min BFGS
 +------------+-------------+-------------+-----------------+ <-- min BFGS
  

--------------------------------------------------------------------------------
 BFGS: starting iteration         3 with trial guess (lambda=  1.000000)
--------------------------------------------------------------------------------

                           -------------------------------
                                      Unit Cell
                           -------------------------------
        Real Lattice(A)              Reciprocal Lattice(1/A)
   4.3248962  -2.4969800   0.0000000        1.4527945   0.0000000  -0.0000000
  -0.0000000   4.9939599  -0.0000000        0.7263972   1.2581569   0.0000000
   0.0000000  -0.0000000   5.4514530       -0.0000000   0.0000000   1.1525708

                       Lattice parameters(A)       Cell Angles
                    a =    4.993960          alpha =   90.000000
                    b =    4.993960          beta  =   90.000000
                    c =    5.451453          gamma =  120.000000

                Current cell volume =  117.742434 A**3

                           -------------------------------
                                     Cell Contents
                           -------------------------------

            xxxxxxxxxxxxxxxxxxxxxxxxxxxxxxxxxxxxxxxxxxxxxxxxxxxxxxxxxxxxxxxxx
            x  Element         Atom        Fractional coordinates of atoms  x
            x                 Number           u          v          w      x
            x---------------------------------------------------------------x
            x  O                 1         0.150943   0.416082   0.120621   x
            x  O                 2        -0.416082  -0.265140   0.787287   x
            x  O                 3         0.265140  -0.150943   0.453954   x
            x  O                 4         0.416082   0.150943  -0.120621   x
            x  O                 5        -0.265140  -0.416082   0.212713   x
            x  O                 6        -0.150943   0.265140   0.546046   x
            x  Si                1         0.472558   0.472558   0.000000   x
            x  Si                2        -0.472558   0.000000   0.666667   x
            x  Si                3         0.000000  -0.472558   0.333333   x
            xxxxxxxxxxxxxxxxxxxxxxxxxxxxxxxxxxxxxxxxxxxxxxxxxxxxxxxxxxxxxxxxx


------------------------------------------------------------------------ <-- SCF
SCF loop      Energy           Fermi           Energy gain       Timer   <-- SCF
                               energy          per atom          (sec)   <-- SCF
------------------------------------------------------------------------ <-- SCF
Initial  -2.95528358E+003  0.00000000E+000                       352.76  <-- SCF
      1  -2.95542933E+003  2.14682687E+000   8.33099398E-003     357.83  <-- SCF
      2  -2.95542998E+003  2.14681748E+000   7.29915589E-005     363.82  <-- SCF
      3  -2.95537368E+003  1.96477530E+000  -6.25596912E-003     370.00  <-- SCF
      4  -2.95537112E+003  1.98645889E+000  -2.84131124E-004     376.32  <-- SCF
      5  -2.95537047E+003  1.98980124E+000  -7.25963893E-005     384.56  <-- SCF
      6  -2.95537047E+003  1.99081686E+000   2.96958235E-007     389.05  <-- SCF
      7  -2.95537047E+003  1.99088393E+000  -9.16159190E-008     392.92  <-- SCF
------------------------------------------------------------------------ <-- SCF
 
Final energy, E             =  -2955.370470365     eV
Final free energy (E-TS)    =  -2955.370470365     eV
(energies not corrected for finite basis set)
 
NB est. 0K energy (E-0.5TS)      =  -2955.370470365     eV
 

 ******************************** Symmetrised Forces ********************************
 *                                                                                  *
 *                           Cartesian components (eV/A)                            *
 * -------------------------------------------------------------------------------- *
 *                         x                    y                    z              *
 *                                                                                  *
 * O               1      0.14010             -0.00418              0.10198         *
 * O               2     -0.06643              0.12342              0.10198         *
 * O               3     -0.07367             -0.11924              0.10198         *
 * O               4      0.06643              0.12342             -0.10198         *
 * O               5      0.07367             -0.11924             -0.10198         *
 * O               6     -0.14010             -0.00418             -0.10198         *
 * Si              1     -0.01314             -0.00759              0.00000         *
 * Si              2      0.01314             -0.00759              0.00000         *
 * Si              3      0.00000              0.01518              0.00000         *
 *                                                                                  *
 ************************************************************************************

 *********** Symmetrised Stress Tensor ***********
 *                                               *
 *          Cartesian components (GPa)           *
 * --------------------------------------------- *
 *             x             y             z     *
 *                                               *
 *  x      1.069579     -0.000000      0.000000  *
 *  y     -0.000000      1.069579      0.000000  *
 *  z      0.000000      0.000000      0.508370  *
 *                                               *
 *  Pressure:   -0.8825                          *
 *                                               *
 *************************************************
  
 +------------+-------------+-------------+-----------------+ <-- min BFGS
 |    Step    |   lambda    |   F.delta'  |    enthalpy     | <-- min BFGS
 +------------+-------------+-------------+-----------------+ <-- min BFGS
 |  previous  |    0.000000 |    0.142947 |    -2955.354347 | <-- min BFGS
 | trial step |    1.000000 |    0.057498 |    -2955.372321 | <-- min BFGS
 +------------+-------------+-------------+-----------------+ <-- min BFGS
  

--------------------------------------------------------------------------------
 BFGS: improving iteration         3 with line minimization (lambda=  1.672899)
--------------------------------------------------------------------------------

                           -------------------------------
                                      Unit Cell
                           -------------------------------
        Real Lattice(A)              Reciprocal Lattice(1/A)
   4.3189155  -2.4935270   0.0000000        1.4548063   0.0000000  -0.0000000
  -0.0000000   4.9870540  -0.0000000        0.7274031   1.2598992   0.0000000
   0.0000000  -0.0000000   5.4394263       -0.0000000   0.0000000   1.1551191

                       Lattice parameters(A)       Cell Angles
                    a =    4.987054          alpha =   90.000000
                    b =    4.987054          beta  =   90.000000
                    c =    5.439426          gamma =  120.000000

                Current cell volume =  117.157979 A**3

                           -------------------------------
                                     Cell Contents
                           -------------------------------

            xxxxxxxxxxxxxxxxxxxxxxxxxxxxxxxxxxxxxxxxxxxxxxxxxxxxxxxxxxxxxxxxx
            x  Element         Atom        Fractional coordinates of atoms  x
            x                 Number           u          v          w      x
            x---------------------------------------------------------------x
            x  O                 1         0.151114   0.416380   0.121083   x
            x  O                 2        -0.416380  -0.265265   0.787750   x
            x  O                 3         0.265265  -0.151114   0.454416   x
            x  O                 4         0.416380   0.151114  -0.121083   x
            x  O                 5        -0.265265  -0.416380   0.212250   x
            x  O                 6        -0.151114   0.265265   0.545584   x
            x  Si                1         0.472273   0.472273   0.000000   x
            x  Si                2        -0.472273   0.000000   0.666667   x
            x  Si                3         0.000000  -0.472273   0.333333   x
            xxxxxxxxxxxxxxxxxxxxxxxxxxxxxxxxxxxxxxxxxxxxxxxxxxxxxxxxxxxxxxxxx


------------------------------------------------------------------------ <-- SCF
SCF loop      Energy           Fermi           Energy gain       Timer   <-- SCF
                               energy          per atom          (sec)   <-- SCF
------------------------------------------------------------------------ <-- SCF
Initial  -2.95535349E+003  0.00000000E+000                       397.13  <-- SCF
      1  -2.95541070E+003  2.13514836E+000   4.26408150E-003     402.44  <-- SCF
      2  -2.95541099E+003  2.13514354E+000   3.28177189E-005     409.29  <-- SCF
      3  -2.95538540E+003  2.01209041E+000  -2.84329348E-003     415.80  <-- SCF
      4  -2.95538411E+003  2.02641621E+000  -1.43383852E-004     422.64  <-- SCF
      5  -2.95538377E+003  2.02869650E+000  -3.75921827E-005     430.16  <-- SCF
      6  -2.95538376E+003  2.02938512E+000  -1.80179183E-006     435.52  <-- SCF
      7  -2.95538375E+003  2.02939039E+000  -5.73888914E-007     440.21  <-- SCF
      8  -2.95538375E+003  2.02940721E+000  -3.11452370E-007     444.82  <-- SCF
------------------------------------------------------------------------ <-- SCF
 
Final energy, E             =  -2955.383750202     eV
Final free energy (E-TS)    =  -2955.383750202     eV
(energies not corrected for finite basis set)
 
NB est. 0K energy (E-0.5TS)      =  -2955.383750202     eV
 

 ******************************** Symmetrised Forces ********************************
 *                                                                                  *
 *                           Cartesian components (eV/A)                            *
 * -------------------------------------------------------------------------------- *
 *                         x                    y                    z              *
 *                                                                                  *
 * O               1      0.12356             -0.06224              0.02580         *
 * O               2     -0.00788              0.13813              0.02580         *
 * O               3     -0.11568             -0.07589              0.02580         *
 * O               4      0.00788              0.13813             -0.02580         *
 * O               5      0.11568             -0.07589             -0.02580         *
 * O               6     -0.12356             -0.06224             -0.02580         *
 * Si              1     -0.10983             -0.06341              0.00000         *
 * Si              2      0.10983             -0.06341              0.00000         *
 * Si              3      0.00000              0.12682              0.00000         *
 *                                                                                  *
 ************************************************************************************

 *********** Symmetrised Stress Tensor ***********
 *                                               *
 *          Cartesian components (GPa)           *
 * --------------------------------------------- *
 *             x             y             z     *
 *                                               *
 *  x     -0.044747      0.000000      0.000000  *
 *  y      0.000000     -0.044747     -0.000000  *
 *  z      0.000000     -0.000000     -0.745573  *
 *                                               *
 *  Pressure:    0.2784                          *
 *                                               *
 *************************************************
  
 +------------+-------------+-------------+-----------------+ <-- min BFGS
 |    Step    |   lambda    |   F.delta'  |    enthalpy     | <-- min BFGS
 +------------+-------------+-------------+-----------------+ <-- min BFGS
 |  previous  |    0.000000 |    0.142947 |    -2955.354347 | <-- min BFGS
 | trial step |    1.000000 |    0.057498 |    -2955.372321 | <-- min BFGS
 |  line step |    1.672899 |   -0.002329 |    -2955.386565 | <-- min BFGS
 +------------+-------------+-------------+-----------------+ <-- min BFGS
  
 BFGS: finished iteration     3 with enthalpy= -2.95538656E+003 eV
  
 +-----------+-----------------+-----------------+------------+-----+ <-- BFGS
 | Parameter |      value      |    tolerance    |    units   | OK? | <-- BFGS
 +-----------+-----------------+-----------------+------------+-----+ <-- BFGS
 |  dE/ion   |   3.579778E-003 |   1.000000E-005 |         eV | No  | <-- BFGS
 |  |F|max   |   1.407356E-001 |   3.000000E-002 |       eV/A | No  | <-- BFGS
 |  |dR|max  |   7.025866E-003 |   1.000000E-003 |          A | No  | <-- BFGS
 |   Smax    |   7.455727E-001 |   5.000000E-002 |        GPa | No  | <-- BFGS
 +-----------+-----------------+-----------------+------------+-----+ <-- BFGS
  

================================================================================
 Starting BFGS iteration          4 ...
================================================================================
  
 +------------+-------------+-------------+-----------------+ <-- min BFGS
 |    Step    |   lambda    |   F.delta'  |    enthalpy     | <-- min BFGS
 +------------+-------------+-------------+-----------------+ <-- min BFGS
 |  previous  |    0.000000 |    0.037847 |    -2955.386565 | <-- min BFGS
 +------------+-------------+-------------+-----------------+ <-- min BFGS
  

--------------------------------------------------------------------------------
 BFGS: starting iteration         4 with trial guess (lambda=  1.000000)
--------------------------------------------------------------------------------

                           -------------------------------
                                      Unit Cell
                           -------------------------------
        Real Lattice(A)              Reciprocal Lattice(1/A)
   4.3231517  -2.4959728   0.0000000        1.4533807   0.0000000  -0.0000000
  -0.0000000   4.9919456  -0.0000000        0.7266904   1.2586646   0.0000000
   0.0000000  -0.0000000   5.4394696       -0.0000000   0.0000000   1.1551099

                       Lattice parameters(A)       Cell Angles
                    a =    4.991946          alpha =   90.000000
                    b =    4.991946          beta  =   90.000000
                    c =    5.439470          gamma =  120.000000

                Current cell volume =  117.388860 A**3

                           -------------------------------
                                     Cell Contents
                           -------------------------------

            xxxxxxxxxxxxxxxxxxxxxxxxxxxxxxxxxxxxxxxxxxxxxxxxxxxxxxxxxxxxxxxxx
            x  Element         Atom        Fractional coordinates of atoms  x
            x                 Number           u          v          w      x
            x---------------------------------------------------------------x
            x  O                 1         0.151421   0.416733   0.121838   x
            x  O                 2        -0.416733  -0.265312   0.788505   x
            x  O                 3         0.265312  -0.151421   0.455171   x
            x  O                 4         0.416733   0.151421  -0.121838   x
            x  O                 5        -0.265312  -0.416733   0.211495   x
            x  O                 6        -0.151421   0.265312   0.544829   x
            x  Si                1         0.471104   0.471104   0.000000   x
            x  Si                2        -0.471104   0.000000   0.666667   x
            x  Si                3         0.000000  -0.471104   0.333333   x
            xxxxxxxxxxxxxxxxxxxxxxxxxxxxxxxxxxxxxxxxxxxxxxxxxxxxxxxxxxxxxxxxx


------------------------------------------------------------------------ <-- SCF
SCF loop      Energy           Fermi           Energy gain       Timer   <-- SCF
                               energy          per atom          (sec)   <-- SCF
------------------------------------------------------------------------ <-- SCF
Initial  -2.95530634E+003  0.00000000E+000                       450.14  <-- SCF
      1  -2.95539635E+003  1.96292942E+000   1.08697944E-003     455.03  <-- SCF
      2  -2.95539668E+003  1.96292147E+000   3.68593264E-005     461.33  <-- SCF
      3  -2.95537879E+003  2.00573182E+000  -1.98785621E-003     469.02  <-- SCF
      4  -2.95537576E+003  2.00942703E+000  -3.36368227E-004     477.87  <-- SCF
      5  -2.95537567E+003  2.01378651E+000  -9.95348897E-006     486.47  <-- SCF
      6  -2.95537568E+003  2.01551729E+000   1.28412377E-006     492.68  <-- SCF
      7  -2.95537569E+003  2.01591637E+000   8.93322324E-007     498.89  <-- SCF
      8  -2.95537569E+003  2.01607396E+000   2.09739319E-007     504.45  <-- SCF
      9  -2.95537569E+003  2.01606813E+000  -1.07759575E-009     509.85  <-- SCF
------------------------------------------------------------------------ <-- SCF
 
Final energy, E             =  -2955.375693345     eV
Final free energy (E-TS)    =  -2955.375693345     eV
(energies not corrected for finite basis set)
 
NB est. 0K energy (E-0.5TS)      =  -2955.375693345     eV
 

 ******************************** Symmetrised Forces ********************************
 *                                                                                  *
 *                           Cartesian components (eV/A)                            *
 * -------------------------------------------------------------------------------- *
 *                         x                    y                    z              *
 *                                                                                  *
 * O               1      0.10854             -0.06789              0.01020         *
 * O               2      0.00452              0.12794              0.01020         *
 * O               3     -0.11306             -0.06005              0.01020         *
 * O               4     -0.00452              0.12794             -0.01020         *
 * O               5      0.11306             -0.06005             -0.01020         *
 * O               6     -0.10854             -0.06789             -0.01020         *
 * Si              1      0.04426              0.02555             -0.00000         *
 * Si              2     -0.04426              0.02555             -0.00000         *
 * Si              3     -0.00000             -0.05111              0.00000         *
 *                                                                                  *
 ************************************************************************************

 *********** Symmetrised Stress Tensor ***********
 *                                               *
 *          Cartesian components (GPa)           *
 * --------------------------------------------- *
 *             x             y             z     *
 *                                               *
 *  x      0.197734     -0.000000      0.000000  *
 *  y     -0.000000      0.197734     -0.000000  *
 *  z      0.000000     -0.000000     -0.672323  *
 *                                               *
 *  Pressure:    0.0923                          *
 *                                               *
 *************************************************
  
 +------------+-------------+-------------+-----------------+ <-- min BFGS
 |    Step    |   lambda    |   F.delta'  |    enthalpy     | <-- min BFGS
 +------------+-------------+-------------+-----------------+ <-- min BFGS
 |  previous  |    0.000000 |    0.037847 |    -2955.386565 | <-- min BFGS
 | trial step |    1.000000 |   -0.005013 |    -2955.377031 | <-- min BFGS
 +------------+-------------+-------------+-----------------+ <-- min BFGS
  
 BFGS: finished iteration     4 with enthalpy= -2.95537703E+003 eV
  
 +-----------+-----------------+-----------------+------------+-----+ <-- BFGS
 | Parameter |      value      |    tolerance    |    units   | OK? | <-- BFGS
 +-----------+-----------------+-----------------+------------+-----+ <-- BFGS
 |  dE/ion   |   1.059270E-003 |   1.000000E-005 |         eV | No  | <-- BFGS
 |  |F|max   |   1.284279E-001 |   3.000000E-002 |       eV/A | No  | <-- BFGS
 |  |dR|max  |   5.836208E-003 |   1.000000E-003 |          A | No  | <-- BFGS
 |   Smax    |   6.723232E-001 |   5.000000E-002 |        GPa | No  | <-- BFGS
 +-----------+-----------------+-----------------+------------+-----+ <-- BFGS
  

================================================================================
 Starting BFGS iteration          5 ...
================================================================================

Writing analysis data to quartz_alpha.castep_bin

Writing model to quartz_alpha.check
  
 +------------+-------------+-------------+-----------------+ <-- min BFGS
 |    Step    |   lambda    |   F.delta'  |    enthalpy     | <-- min BFGS
 +------------+-------------+-------------+-----------------+ <-- min BFGS
 |  previous  |    0.000000 |    0.040740 |    -2955.377031 | <-- min BFGS
 +------------+-------------+-------------+-----------------+ <-- min BFGS
  

--------------------------------------------------------------------------------
 BFGS: starting iteration         5 with trial guess (lambda=  1.000000)
--------------------------------------------------------------------------------

                           -------------------------------
                                      Unit Cell
                           -------------------------------
        Real Lattice(A)              Reciprocal Lattice(1/A)
   4.3224290  -2.4955555   0.0000000        1.4536237   0.0000000  -0.0000000
  -0.0000000   4.9911111  -0.0000000        0.7268119   1.2588751   0.0000000
   0.0000000  -0.0000000   5.4434462       -0.0000000   0.0000000   1.1542661

                       Lattice parameters(A)       Cell Angles
                    a =    4.991111          alpha =   90.000000
                    b =    4.991111          beta  =   90.000000
                    c =    5.443446          gamma =  120.000000

                Current cell volume =  117.435401 A**3

                           -------------------------------
                                     Cell Contents
                           -------------------------------

            xxxxxxxxxxxxxxxxxxxxxxxxxxxxxxxxxxxxxxxxxxxxxxxxxxxxxxxxxxxxxxxxx
            x  Element         Atom        Fractional coordinates of atoms  x
            x                 Number           u          v          w      x
            x---------------------------------------------------------------x
            x  O                 1         0.151545   0.416672   0.121734   x
            x  O                 2        -0.416672  -0.265126   0.788401   x
            x  O                 3         0.265126  -0.151545   0.455067   x
            x  O                 4         0.416672   0.151545  -0.121734   x
            x  O                 5        -0.265126  -0.416672   0.211599   x
            x  O                 6        -0.151545   0.265126   0.544933   x
            x  Si                1         0.471262   0.471262   0.000000   x
            x  Si                2        -0.471262   0.000000   0.666667   x
            x  Si                3         0.000000  -0.471262   0.333333   x
            xxxxxxxxxxxxxxxxxxxxxxxxxxxxxxxxxxxxxxxxxxxxxxxxxxxxxxxxxxxxxxxxx


------------------------------------------------------------------------ <-- SCF
SCF loop      Energy           Fermi           Energy gain       Timer   <-- SCF
                               energy          per atom          (sec)   <-- SCF
------------------------------------------------------------------------ <-- SCF
Initial  -2.95537462E+003  0.00000000E+000                       516.67  <-- SCF
      1  -2.95537765E+003  2.00269991E+000   6.90666565E-005     523.59  <-- SCF
      2  -2.95537768E+003  2.00269890E+000   3.37610680E-006     529.38  <-- SCF
      3  -2.95537643E+003  2.01358751E+000  -1.39756015E-004     535.21  <-- SCF
      4  -2.95537622E+003  2.01187689E+000  -2.29498931E-005     541.11  <-- SCF
      5  -2.95537621E+003  2.01225874E+000  -1.02667540E-006     544.94  <-- SCF
      6  -2.95537621E+003  2.01215474E+000   2.75554467E-007     548.57  <-- SCF
      7  -2.95537621E+003  2.01217743E+000   1.47310347E-007     552.20  <-- SCF
------------------------------------------------------------------------ <-- SCF
 
Final energy, E             =  -2955.376213691     eV
Final free energy (E-TS)    =  -2955.376213691     eV
(energies not corrected for finite basis set)
 
NB est. 0K energy (E-0.5TS)      =  -2955.376213691     eV
 

 ******************************** Symmetrised Forces ********************************
 *                                                                                  *
 *                           Cartesian components (eV/A)                            *
 * -------------------------------------------------------------------------------- *
 *                         x                    y                    z              *
 *                                                                                  *
 * O               1      0.08508             -0.04498              0.04283         *
 * O               2     -0.00359              0.09617              0.04283         *
 * O               3     -0.08149             -0.05119              0.04283         *
 * O               4      0.00359              0.09617             -0.04283         *
 * O               5      0.08149             -0.05119             -0.04283         *
[...]
 *                                               *
 *  Pressure:    0.1190                          *
 *                                               *
 *************************************************
  
 +------------+-------------+-------------+-----------------+ <-- min BFGS
 |    Step    |   lambda    |   F.delta'  |    enthalpy     | <-- min BFGS
 +------------+-------------+-------------+-----------------+ <-- min BFGS
 |  previous  |    0.000000 |    0.003542 |    -2955.406495 | <-- min BFGS
 | trial step |    1.000000 |   -0.022270 |    -2955.407540 | <-- min BFGS
 |  line step |    0.137223 |   -0.002601 |    -2955.407241 | <-- min BFGS
 +------------+-------------+-------------+-----------------+ <-- min BFGS
  

--------------------------------------------------------------------------------
 BFGS: improving iteration        18 with quad minimization (lambda=  0.060234)
--------------------------------------------------------------------------------

                           -------------------------------
                                      Unit Cell
                           -------------------------------
        Real Lattice(A)              Reciprocal Lattice(1/A)
   4.4001374  -2.5404205   0.0000000        1.4279521   0.0000000   0.0000000
  -0.0000000   5.0808410  -0.0000000        0.7139760   1.2366428   0.0000000
  -0.0000000  -0.0000000   5.5619368        0.0000000   0.0000000   1.1296758

                       Lattice parameters(A)       Cell Angles
                    a =    5.080841          alpha =   90.000000
                    b =    5.080841          beta  =   90.000000
                    c =    5.561937          gamma =  120.000000

                Current cell volume =  124.344874 A**3

                           -------------------------------
                                     Cell Contents
                           -------------------------------

            xxxxxxxxxxxxxxxxxxxxxxxxxxxxxxxxxxxxxxxxxxxxxxxxxxxxxxxxxxxxxxxxx
            x  Element         Atom        Fractional coordinates of atoms  x
            x                 Number           u          v          w      x
            x---------------------------------------------------------------x
            x  O                 1         0.190598   0.419252   0.151427   x
            x  O                 2        -0.419252  -0.228654   0.818094   x
            x  O                 3         0.228654  -0.190598   0.484760   x
            x  O                 4         0.419252   0.190598  -0.151427   x
            x  O                 5        -0.228654  -0.419252   0.181906   x
            x  O                 6        -0.190598   0.228654   0.515240   x
            x  Si                1         0.490447   0.490447   0.000000   x
            x  Si                2        -0.490447   0.000000   0.666667   x
            x  Si                3        -0.000000  -0.490447   0.333333   x
            xxxxxxxxxxxxxxxxxxxxxxxxxxxxxxxxxxxxxxxxxxxxxxxxxxxxxxxxxxxxxxxxx


------------------------------------------------------------------------ <-- SCF
SCF loop      Energy           Fermi           Energy gain       Timer   <-- SCF
                               energy          per atom          (sec)   <-- SCF
------------------------------------------------------------------------ <-- SCF
Initial  -2.95539667E+003  0.00000000E+000                      1979.12  <-- SCF
      1  -2.95541207E+003  1.58052205E+000   5.36817698E-004    1985.70  <-- SCF
      2  -2.95541213E+003  1.58052014E+000   6.43100534E-006    1993.97  <-- SCF
      3  -2.95540895E+003  1.59740501E+000  -3.52913819E-004    1999.63  <-- SCF
      4  -2.95540850E+003  1.59613204E+000  -5.08181605E-005    2007.95  <-- SCF
      5  -2.95540848E+003  1.59729433E+000  -1.28244494E-006    2012.56  <-- SCF
      6  -2.95540849E+003  1.59755514E+000   6.27146248E-007    2016.26  <-- SCF
      7  -2.95540849E+003  1.59776887E+000   1.12884557E-007    2020.13  <-- SCF
------------------------------------------------------------------------ <-- SCF
 
Final energy, E             =  -2955.408491489     eV
Final free energy (E-TS)    =  -2955.408491489     eV
(energies not corrected for finite basis set)
 
NB est. 0K energy (E-0.5TS)      =  -2955.408491489     eV
 

 ******************************** Symmetrised Forces ********************************
 *                                                                                  *
 *                           Cartesian components (eV/A)                            *
 * -------------------------------------------------------------------------------- *
 *                         x                    y                    z              *
 *                                                                                  *
 * O               1     -0.00857             -0.00356              0.00512         *
 * O               2      0.00736             -0.00564              0.00512         *
 * O               3      0.00120              0.00920              0.00512         *
 * O               4     -0.00736             -0.00564             -0.00512         *
 * O               5     -0.00120              0.00920             -0.00512         *
 * O               6      0.00857             -0.00356             -0.00512         *
 * Si              1     -0.00528             -0.00305             -0.00000         *
 * Si              2      0.00528             -0.00305              0.00000         *
 * Si              3      0.00000              0.00609              0.00000         *
 *                                                                                  *
 ************************************************************************************

 *********** Symmetrised Stress Tensor ***********
 *                                               *
 *          Cartesian components (GPa)           *
 * --------------------------------------------- *
 *             x             y             z     *
 *                                               *
 *  x     -0.025551     -0.000000     -0.000000  *
 *  y     -0.000000     -0.025551     -0.000000  *
 *  z     -0.000000     -0.000000      0.003548  *
 *                                               *
 *  Pressure:    0.0159                          *
 *                                               *
 *************************************************
  
 +------------+-------------+-------------+-----------------+ <-- min BFGS
 |    Step    |   lambda    |   F.delta'  |    enthalpy     | <-- min BFGS
 +------------+-------------+-------------+-----------------+ <-- min BFGS
 |  previous  |    0.000000 |    0.003542 |    -2955.406495 | <-- min BFGS
 | trial step |    1.000000 |   -0.022270 |    -2955.407540 | <-- min BFGS
 |  line step |    0.137223 |   -0.002601 |    -2955.407241 | <-- min BFGS
 |  quad step |    0.060234 |   -0.000110 |    -2955.406606 | <-- min BFGS
 +------------+-------------+-------------+-----------------+ <-- min BFGS
  
 BFGS: finished iteration    18 with enthalpy= -2.95540661E+003 eV
  
 +-----------+-----------------+-----------------+------------+-----+ <-- BFGS
 | Parameter |      value      |    tolerance    |    units   | OK? | <-- BFGS
 +-----------+-----------------+-----------------+------------+-----+ <-- BFGS
 |  dE/ion   |   1.233413E-005 |   1.000000E-005 |         eV | No  | <-- BFGS
 |  |F|max   |   1.059609E-002 |   3.000000E-002 |       eV/A | Yes | <-- BFGS
 |  |dR|max  |   1.450796E-003 |   1.000000E-003 |          A | No  | <-- BFGS
 |   Smax    |   2.555126E-002 |   5.000000E-002 |        GPa | Yes | <-- BFGS
 +-----------+-----------------+-----------------+------------+-----+ <-- BFGS
  

================================================================================
 Starting BFGS iteration         19 ...
================================================================================
  
 +------------+-------------+-------------+-----------------+ <-- min BFGS
 |    Step    |   lambda    |   F.delta'  |    enthalpy     | <-- min BFGS
 +------------+-------------+-------------+-----------------+ <-- min BFGS
 |  previous  |    0.000000 |    0.002479 |    -2955.406606 | <-- min BFGS
 +------------+-------------+-------------+-----------------+ <-- min BFGS
  

--------------------------------------------------------------------------------
 BFGS: starting iteration        19 with trial guess (lambda=  1.000000)
--------------------------------------------------------------------------------

                           -------------------------------
                                      Unit Cell
                           -------------------------------
        Real Lattice(A)              Reciprocal Lattice(1/A)
   4.4008353  -2.5408235   0.0000000        1.4277256   0.0000000  -0.0000000
  -0.0000000   5.0816469  -0.0000000        0.7138628   1.2364466   0.0000000
   0.0000000  -0.0000000   5.5608470       -0.0000000   0.0000000   1.1298972

                       Lattice parameters(A)       Cell Angles
                    a =    5.081647          alpha =   90.000000
                    b =    5.081647          beta  =   90.000000
                    c =    5.560847          gamma =  120.000000

                Current cell volume =  124.359954 A**3

                           -------------------------------
                                     Cell Contents
                           -------------------------------

            xxxxxxxxxxxxxxxxxxxxxxxxxxxxxxxxxxxxxxxxxxxxxxxxxxxxxxxxxxxxxxxxx
            x  Element         Atom        Fractional coordinates of atoms  x
            x                 Number           u          v          w      x
            x---------------------------------------------------------------x
            x  O                 1         0.190511   0.419256   0.151420   x
            x  O                 2        -0.419256  -0.228745   0.818087   x
            x  O                 3         0.228745  -0.190511   0.484753   x
            x  O                 4         0.419256   0.190511  -0.151420   x
            x  O                 5        -0.228745  -0.419256   0.181913   x
            x  O                 6        -0.190511   0.228745   0.515247   x
            x  Si                1         0.490324   0.490324   0.000000   x
            x  Si                2        -0.490324   0.000000   0.666667   x
            x  Si                3        -0.000000  -0.490324   0.333333   x
            xxxxxxxxxxxxxxxxxxxxxxxxxxxxxxxxxxxxxxxxxxxxxxxxxxxxxxxxxxxxxxxxx


------------------------------------------------------------------------ <-- SCF
SCF loop      Energy           Fermi           Energy gain       Timer   <-- SCF
                               energy          per atom          (sec)   <-- SCF
------------------------------------------------------------------------ <-- SCF
Initial  -2.95541170E+003  0.00000000E+000                      2024.62  <-- SCF
      1  -2.95540812E+003  1.59313462E+000   1.68236279E-004    2030.84  <-- SCF
      2  -2.95540812E+003  1.59313449E+000   4.30031771E-007    2036.70  <-- SCF
      3  -2.95540796E+003  1.59674321E+000  -1.85800092E-005    2042.57  <-- SCF
      4  -2.95540793E+003  1.59639355E+000  -2.64089098E-006    2046.32  <-- SCF
      5  -2.95540793E+003  1.59654783E+000  -1.88965954E-010    2051.51  <-- SCF
      6  -2.95540793E+003  1.59642691E+000   6.54306001E-008    2055.24  <-- SCF
------------------------------------------------------------------------ <-- SCF
 
Final energy, E             =  -2955.407933218     eV
Final free energy (E-TS)    =  -2955.407933218     eV
(energies not corrected for finite basis set)
 
NB est. 0K energy (E-0.5TS)      =  -2955.407933218     eV
 

 ******************************** Symmetrised Forces ********************************
 *                                                                                  *
 *                           Cartesian components (eV/A)                            *
 * -------------------------------------------------------------------------------- *
 *                         x                    y                    z              *
 *                                                                                  *
 * O               1     -0.00450             -0.00447              0.00238         *
 * O               2      0.00612             -0.00166              0.00238         *
 * O               3     -0.00162              0.00614              0.00238         *
 * O               4     -0.00612             -0.00166             -0.00238         *
 * O               5      0.00162              0.00614             -0.00238         *
 * O               6      0.00450             -0.00447             -0.00238         *
 * Si              1     -0.00178             -0.00103             -0.00000         *
 * Si              2      0.00178             -0.00103              0.00000         *
 * Si              3      0.00000              0.00206              0.00000         *
 *                                                                                  *
 ************************************************************************************

 *********** Symmetrised Stress Tensor ***********
 *                                               *
 *          Cartesian components (GPa)           *
 * --------------------------------------------- *
 *             x             y             z     *
 *                                               *
 *  x      0.007391      0.000000     -0.000000  *
 *  y      0.000000      0.007391      0.000000  *
 *  z     -0.000000      0.000000      0.009632  *
 *                                               *
 *  Pressure:   -0.0081                          *
 *                                               *
 *************************************************
  
 +------------+-------------+-------------+-----------------+ <-- min BFGS
 |    Step    |   lambda    |   F.delta'  |    enthalpy     | <-- min BFGS
 +------------+-------------+-------------+-----------------+ <-- min BFGS
 |  previous  |    0.000000 |    0.002479 |    -2955.406606 | <-- min BFGS
 | trial step |    1.000000 |    0.000535 |    -2955.406685 | <-- min BFGS
 +------------+-------------+-------------+-----------------+ <-- min BFGS
  
 BFGS: finished iteration    19 with enthalpy= -2.95540668E+003 eV
  
 +-----------+-----------------+-----------------+------------+-----+ <-- BFGS
 | Parameter |      value      |    tolerance    |    units   | OK? | <-- BFGS
 +-----------+-----------------+-----------------+------------+-----+ <-- BFGS
 |  dE/ion   |   8.807743E-006 |   1.000000E-005 |         eV | Yes | <-- BFGS
 |  |F|max   |   6.778713E-003 |   3.000000E-002 |       eV/A | Yes | <-- BFGS
 |  |dR|max  |   6.264132E-004 |   1.000000E-003 |          A | Yes | <-- BFGS
 |   Smax    |   9.631693E-003 |   5.000000E-002 |        GPa | Yes | <-- BFGS
 +-----------+-----------------+-----------------+------------+-----+ <-- BFGS
  
 BFGS: Geometry optimization completed successfully.

================================================================================
 BFGS: Final Configuration:
================================================================================

                           -------------------------------
                                      Unit Cell
                           -------------------------------
        Real Lattice(A)              Reciprocal Lattice(1/A)
   4.4008353  -2.5408235   0.0000000        1.4277256   0.0000000  -0.0000000
  -0.0000000   5.0816469  -0.0000000        0.7138628   1.2364466   0.0000000
   0.0000000  -0.0000000   5.5608470       -0.0000000   0.0000000   1.1298972

                       Lattice parameters(A)       Cell Angles
                    a =    5.081647          alpha =   90.000000
                    b =    5.081647          beta  =   90.000000
                    c =    5.560847          gamma =  120.000000

                Current cell volume =  124.359954 A**3

                           -------------------------------
                                     Cell Contents
                           -------------------------------

            xxxxxxxxxxxxxxxxxxxxxxxxxxxxxxxxxxxxxxxxxxxxxxxxxxxxxxxxxxxxxxxxx
            x  Element         Atom        Fractional coordinates of atoms  x
            x                 Number           u          v          w      x
            x---------------------------------------------------------------x
            x  O                 1         0.190511   0.419256   0.151420   x
            x  O                 2        -0.419256  -0.228745   0.818087   x
            x  O                 3         0.228745  -0.190511   0.484753   x
            x  O                 4         0.419256   0.190511  -0.151420   x
            x  O                 5        -0.228745  -0.419256   0.181913   x
            x  O                 6        -0.190511   0.228745   0.515247   x
            x  Si                1         0.490324   0.490324   0.000000   x
            x  Si                2        -0.490324   0.000000   0.666667   x
            x  Si                3        -0.000000  -0.490324   0.333333   x
            xxxxxxxxxxxxxxxxxxxxxxxxxxxxxxxxxxxxxxxxxxxxxxxxxxxxxxxxxxxxxxxxx


 BFGS: Final Enthalpy     = -2.95540668E+003 eV
 BFGS: Final <frequency>  unchanged from initial value
 BFGS: Final bulk modulus =     313.57313 GPa

 ******************************** Symmetrised Forces ********************************
 *                                                                                  *
 *                           Cartesian components (eV/A)                            *
 * -------------------------------------------------------------------------------- *
 *                         x                    y                    z              *
 *                                                                                  *
 * O               1     -0.00450             -0.00447              0.00238         *
 * O               2      0.00612             -0.00166              0.00238         *
 * O               3     -0.00162              0.00614              0.00238         *
 * O               4     -0.00612             -0.00166             -0.00238         *
 * O               5      0.00162              0.00614             -0.00238         *
 * O               6      0.00450             -0.00447             -0.00238         *
 * Si              1     -0.00178             -0.00103             -0.00000         *
 * Si              2      0.00178             -0.00103              0.00000         *
 * Si              3      0.00000              0.00206              0.00000         *
 *                                                                                  *
 ************************************************************************************

 *********** Symmetrised Stress Tensor ***********
 *                                               *
 *          Cartesian components (GPa)           *
 * --------------------------------------------- *
 *             x             y             z     *
 *                                               *
 *  x      0.007391      0.000000     -0.000000  *
 *  y      0.000000      0.007391      0.000000  *
 *  z     -0.000000      0.000000      0.009632  *
 *                                               *
 *  Pressure:   -0.0081                          *
 *                                               *
 *************************************************

Writing analysis data to quartz_alpha.castep_bin

Writing model to quartz_alpha.check
 
 A BibTeX formatted list of references used in this run has been written to 
 quartz_alpha.bib
 
Initialisation time =      0.71 s
Calculation time    =   2058.86 s
Finalisation time   =      2.49 s
Total time          =   2062.06 s
Peak Memory Use     = 292808 kB
