ATOMS
     6    2.325243   -0.115261    0.031711
     1    2.344577   -0.363301    1.077589
     9    3.131708   -0.909527   -0.638930
     9    2.736189    1.130568   -0.134093
     8    1.079338   -0.265162   -0.526351
     6    0.007719   -0.041269    0.244204
     9    0.064656    1.154700    0.824420
     9   -0.042641   -0.911850    1.255074
     8   -1.071578   -0.152842   -0.539134
     6   -2.310374    0.036537    0.022189
     1   -2.267004    0.230694    1.077874
     9   -2.890949    1.048938   -0.593940
     9   -3.029540   -1.046542   -0.203665



