ATOMS
    6    0.0000000000    0.0000000000    0.0000000000
    8    0.0000000000    0.0000000000    1.2614009982
    7    0.0000000000    1.1482466623   -0.6997899990
    7    0.0000000000   -1.1482466623   -0.6997899990
    1    0.0000000000    2.0265496485   -0.2028169999
    1    0.0000000000   -2.0265496485   -0.2028169999
    1    0.0000000000    1.1340804828   -1.7049749982
    1    0.0000000000   -1.1340804828   -1.7049749982
  X   2.000  0.000  2.000     0.010  0.000  0.000
  X   1.902  0.618  2.000     0.010  0.003  0.000
  X   1.618  1.176  2.000     0.008  0.006  0.000
  X   1.176  1.618  2.000     0.006  0.008  0.000
  X   0.618  1.902  2.000     0.003  0.010  0.000
  X  -0.000  2.000  2.000    -0.000  0.010  0.000
  X  -0.618  1.902  2.000    -0.003  0.010  0.000
  X  -1.176  1.618  2.000    -0.006  0.008  0.000
  X  -1.618  1.176  2.000    -0.008  0.006  0.000
  X  -1.902  0.618  2.000    -0.010  0.003  0.000
  X  -2.000 -0.000  2.000    -0.010 -0.000  0.000
  X  -1.902 -0.618  2.000    -0.010 -0.003  0.000
  X  -1.618 -1.176  2.000    -0.008 -0.006  0.000
  X  -1.176 -1.618  2.000    -0.006 -0.008  0.000
  X  -0.618 -1.902  2.000    -0.003 -0.010  0.000
  X   0.000 -2.000  2.000     0.000 -0.010  0.000
  X   0.618 -1.902  2.000     0.003 -0.010  0.000
  X   1.176 -1.618  2.000     0.006 -0.008  0.000
  X   1.618 -1.176  2.000     0.008 -0.006  0.000
  X   1.902 -0.618  2.000     0.010 -0.003  0.000
  X   4.000  0.000  4.000     0.020  0.000  0.000
  X   3.804  1.236  4.000     0.019  0.006  0.000
  X   3.236  2.351  4.000     0.016  0.012  0.000
  X   2.351  3.236  4.000     0.012  0.016  0.000
  X   1.236  3.804  4.000     0.006  0.019  0.000
  X  -0.000  4.000  4.000    -0.000  0.020  0.000
  X  -1.236  3.804  4.000    -0.006  0.019  0.000
  X  -2.351  3.236  4.000    -0.012  0.016  0.000
  X  -3.236  2.351  4.000    -0.016  0.012  0.000
  X  -3.804  1.236  4.000    -0.019  0.006  0.000
  X  -4.000 -0.000  4.000    -0.020 -0.000  0.000
  X  -3.804 -1.236  4.000    -0.019 -0.006  0.000
  X  -3.236 -2.351  4.000    -0.016 -0.012  0.000
  X  -2.351 -3.236  4.000    -0.012 -0.016  0.000
  X  -1.236 -3.804  4.000    -0.006 -0.019  0.000
  X   0.000 -4.000  4.000     0.000 -0.020  0.000
  X   1.236 -3.804  4.000     0.006 -0.019  0.000
  X   2.351 -3.236  4.000     0.012 -0.016  0.000
  X   3.236 -2.351  4.000     0.016 -0.012  0.000
  X   3.804 -1.236  4.000     0.019 -0.006  0.000
  X   6.000  0.000  6.000     0.030  0.000  0.000
  X   5.706  1.854  6.000     0.029  0.009  0.000
  X   4.854  3.527  6.000     0.024  0.018  0.000
  X   3.527  4.854  6.000     0.018  0.024  0.000
  X   1.854  5.706  6.000     0.009  0.029  0.000
  X  -0.000  6.000  6.000    -0.000  0.030  0.000
  X  -1.854  5.706  6.000    -0.009  0.029  0.000
  X  -3.527  4.854  6.000    -0.018  0.024  0.000
  X  -4.854  3.527  6.000    -0.024  0.018  0.000
  X  -5.706  1.854  6.000    -0.029  0.009  0.000
  X  -6.000 -0.000  6.000    -0.030 -0.000  0.000
  X  -5.706 -1.854  6.000    -0.029 -0.009  0.000
  X  -4.854 -3.527  6.000    -0.024 -0.018  0.000
  X  -3.527 -4.854  6.000    -0.018 -0.024  0.000
  X  -1.854 -5.706  6.000    -0.009 -0.029  0.000
  X   0.000 -6.000  6.000     0.000 -0.030  0.000
  X   1.854 -5.706  6.000     0.009 -0.029  0.000
  X   3.527 -4.854  6.000     0.018 -0.024  0.000
  X   4.854 -3.527  6.000     0.024 -0.018  0.000
  X   5.706 -1.854  6.000     0.029 -0.009  0.000
  X   8.000  0.000  8.000     0.040  0.000  0.000
  X   7.608  2.472  8.000     0.038  0.012  0.000
  X   6.472  4.702  8.000     0.032  0.024  0.000
  X   4.702  6.472  8.000     0.024  0.032  0.000
  X   2.472  7.608  8.000     0.012  0.038  0.000
  X  -0.000  8.000  8.000    -0.000  0.040  0.000
  X  -2.472  7.608  8.000    -0.012  0.038  0.000
  X  -4.702  6.472  8.000    -0.024  0.032  0.000
  X  -6.472  4.702  8.000    -0.032  0.024  0.000
  X  -7.608  2.472  8.000    -0.038  0.012  0.000
  X  -8.000 -0.000  8.000    -0.040 -0.000  0.000
  X  -7.608 -2.472  8.000    -0.038 -0.012  0.000
  X  -6.472 -4.702  8.000    -0.032 -0.024  0.000
  X  -4.702 -6.472  8.000    -0.024 -0.032  0.000
  X  -2.472 -7.608  8.000    -0.012 -0.038  0.000
  X   0.000 -8.000  8.000     0.000 -0.040  0.000
  X   2.472 -7.608  8.000     0.012 -0.038  0.000
  X   4.702 -6.472  8.000     0.024 -0.032  0.000
  X   6.472 -4.702  8.000     0.032 -0.024  0.000
  X   7.608 -2.472  8.000     0.038 -0.012  0.000
  X  10.000  0.000 10.000     0.050  0.000  0.000
  X   9.511  3.090 10.000     0.048  0.015  0.000
  X   8.090  5.878 10.000     0.040  0.029  0.000
  X   5.878  8.090 10.000     0.029  0.040  0.000
  X   3.090  9.511 10.000     0.015  0.048  0.000
  X  -0.000 10.000 10.000    -0.000  0.050  0.000
  X  -3.090  9.511 10.000    -0.015  0.048  0.000
  X  -5.878  8.090 10.000    -0.029  0.040  0.000
  X  -8.090  5.878 10.000    -0.040  0.029  0.000
  X  -9.511  3.090 10.000    -0.048  0.015  0.000
  X  -10.000 -0.000 10.000    -0.050 -0.000  0.000
  X  -9.511 -3.090 10.000    -0.048 -0.015  0.000
  X  -8.090 -5.878 10.000    -0.040 -0.029  0.000
  X  -5.878 -8.090 10.000    -0.029 -0.040  0.000
  X  -3.090 -9.511 10.000    -0.015 -0.048  0.000
  X   0.000 -10.000 10.000     0.000 -0.050  0.000
  X   3.090 -9.511 10.000     0.015 -0.048  0.000
  X   5.878 -8.090 10.000     0.029 -0.040  0.000
  X   8.090 -5.878 10.000     0.040 -0.029  0.000
  X   9.511 -3.090 10.000     0.048 -0.015  0.000
  X  12.000  0.000 12.000     0.060  0.000  0.000
  X  11.413  3.708 12.000     0.057  0.019  0.000
  X   9.708  7.053 12.000     0.049  0.035  0.000
  X   7.053  9.708 12.000     0.035  0.049  0.000
  X   3.708 11.413 12.000     0.019  0.057  0.000
  X  -0.000 12.000 12.000    -0.000  0.060  0.000
  X  -3.708 11.413 12.000    -0.019  0.057  0.000
  X  -7.053  9.708 12.000    -0.035  0.049  0.000
  X  -9.708  7.053 12.000    -0.049  0.035  0.000
  X  -11.413  3.708 12.000    -0.057  0.019  0.000
  X  -12.000 -0.000 12.000    -0.060 -0.000  0.000
  X  -11.413 -3.708 12.000    -0.057 -0.019  0.000
  X  -9.708 -7.053 12.000    -0.049 -0.035  0.000
  X  -7.053 -9.708 12.000    -0.035 -0.049  0.000
  X  -3.708 -11.413 12.000    -0.019 -0.057  0.000
  X   0.000 -12.000 12.000     0.000 -0.060  0.000
  X   3.708 -11.413 12.000     0.019 -0.057  0.000
  X   7.053 -9.708 12.000     0.035 -0.049  0.000
  X   9.708 -7.053 12.000     0.049 -0.035  0.000
  X  11.413 -3.708 12.000     0.057 -0.019  0.000
  X  14.000  0.000 14.000     0.070  0.000  0.000
  X  13.315  4.326 14.000     0.067  0.022  0.000
  X  11.326  8.229 14.000     0.057  0.041  0.000
  X   8.229 11.326 14.000     0.041  0.057  0.000
  X   4.326 13.315 14.000     0.022  0.067  0.000
  X  -0.000 14.000 14.000    -0.000  0.070  0.000
  X  -4.326 13.315 14.000    -0.022  0.067  0.000
  X  -8.229 11.326 14.000    -0.041  0.057  0.000
  X  -11.326  8.229 14.000    -0.057  0.041  0.000
  X  -13.315  4.326 14.000    -0.067  0.022  0.000
  X  -14.000 -0.000 14.000    -0.070 -0.000  0.000
  X  -13.315 -4.326 14.000    -0.067 -0.022  0.000
  X  -11.326 -8.229 14.000    -0.057 -0.041  0.000
  X  -8.229 -11.326 14.000    -0.041 -0.057  0.000
  X  -4.326 -13.315 14.000    -0.022 -0.067  0.000
  X   0.000 -14.000 14.000     0.000 -0.070  0.000
  X   4.326 -13.315 14.000     0.022 -0.067  0.000
  X   8.229 -11.326 14.000     0.041 -0.057  0.000
  X  11.326 -8.229 14.000     0.057 -0.041  0.000
  X  13.315 -4.326 14.000     0.067 -0.022  0.000
  X  16.000  0.000 16.000     0.080  0.000  0.000
  X  15.217  4.944 16.000     0.076  0.025  0.000
  X  12.944  9.405 16.000     0.065  0.047  0.000
  X   9.405 12.944 16.000     0.047  0.065  0.000
  X   4.944 15.217 16.000     0.025  0.076  0.000
  X  -0.000 16.000 16.000    -0.000  0.080  0.000
  X  -4.944 15.217 16.000    -0.025  0.076  0.000
  X  -9.405 12.944 16.000    -0.047  0.065  0.000
  X  -12.944  9.405 16.000    -0.065  0.047  0.000
  X  -15.217  4.944 16.000    -0.076  0.025  0.000
  X  -16.000 -0.000 16.000    -0.080 -0.000  0.000
  X  -15.217 -4.944 16.000    -0.076 -0.025  0.000
  X  -12.944 -9.405 16.000    -0.065 -0.047  0.000
  X  -9.405 -12.944 16.000    -0.047 -0.065  0.000
  X  -4.944 -15.217 16.000    -0.025 -0.076  0.000
  X   0.000 -16.000 16.000     0.000 -0.080  0.000
  X   4.944 -15.217 16.000     0.025 -0.076  0.000
  X   9.405 -12.944 16.000     0.047 -0.065  0.000
  X  12.944 -9.405 16.000     0.065 -0.047  0.000
  X  15.217 -4.944 16.000     0.076 -0.025  0.000
  X  18.000  0.000 18.000     0.090  0.000  0.000
  X  17.119  5.562 18.000     0.086  0.028  0.000
  X  14.562 10.580 18.000     0.073  0.053  0.000
  X  10.580 14.562 18.000     0.053  0.073  0.000
  X   5.562 17.119 18.000     0.028  0.086  0.000
  X  -0.000 18.000 18.000    -0.000  0.090  0.000
  X  -5.562 17.119 18.000    -0.028  0.086  0.000
  X  -10.580 14.562 18.000    -0.053  0.073  0.000
  X  -14.562 10.580 18.000    -0.073  0.053  0.000
  X  -17.119  5.562 18.000    -0.086  0.028  0.000
  X  -18.000 -0.000 18.000    -0.090 -0.000  0.000
  X  -17.119 -5.562 18.000    -0.086 -0.028  0.000
  X  -14.562 -10.580 18.000    -0.073 -0.053  0.000
  X  -10.580 -14.562 18.000    -0.053 -0.073  0.000
  X  -5.562 -17.119 18.000    -0.028 -0.086  0.000
  X   0.000 -18.000 18.000     0.000 -0.090  0.000
  X   5.562 -17.119 18.000     0.028 -0.086  0.000
  X  10.580 -14.562 18.000     0.053 -0.073  0.000
  X  14.562 -10.580 18.000     0.073 -0.053  0.000
  X  17.119 -5.562 18.000     0.086 -0.028  0.000
  X  20.000  0.000 20.000     0.100  0.000  0.000
  X  19.021  6.180 20.000     0.095  0.031  0.000
  X  16.180 11.756 20.000     0.081  0.059  0.000
  X  11.756 16.180 20.000     0.059  0.081  0.000
  X   6.180 19.021 20.000     0.031  0.095  0.000
  X  -0.000 20.000 20.000    -0.000  0.100  0.000
  X  -6.180 19.021 20.000    -0.031  0.095  0.000
  X  -11.756 16.180 20.000    -0.059  0.081  0.000
  X  -16.180 11.756 20.000    -0.081  0.059  0.000
  X  -19.021  6.180 20.000    -0.095  0.031  0.000
  X  -20.000 -0.000 20.000    -0.100 -0.000  0.000
  X  -19.021 -6.180 20.000    -0.095 -0.031  0.000
  X  -16.180 -11.756 20.000    -0.081 -0.059  0.000
  X  -11.756 -16.180 20.000    -0.059 -0.081  0.000
  X  -6.180 -19.021 20.000    -0.031 -0.095  0.000
  X   0.000 -20.000 20.000     0.000 -0.100  0.000
  X   6.180 -19.021 20.000     0.031 -0.095  0.000
  X  11.756 -16.180 20.000     0.059 -0.081  0.000
  X  16.180 -11.756 20.000     0.081 -0.059  0.000
  X  19.021 -6.180 20.000     0.095 -0.031  0.000
