ANIMSTEPS 13
 DIM-GROUP
 3 5
 PRIMVEC 1
    2.71000000000    2.71000000000    0.0000000000
    2.71000000000    0.0000000000    2.71000000000
    0.0000000000    2.71000000000    2.71000000000
 CONVVEC 1
    5.420000000000    0.0000000000    0.0000000000
    0.0000000000    5.420000000000    0.0000000000
    0.0000000000    0.0000000000    5.420000000000
 PRIMCOORD 1
 2 1
 16      0.0000000000     0.0000000000     0.0000000000
 30      1.35500000000000000000    -1.35500000000000000000    -1.35500000000000000000
 PRIMVEC 2
    2.98100000000    2.98100000000    0.0000000000
    2.98100000000    0.0000000000    2.98100000000
    0.0000000000    2.98100000000    2.98100000000
 CONVVEC 2
    5.962000000000    0.0000000000    0.0000000000
    0.0000000000    5.962000000000    0.0000000000
    0.0000000000    0.0000000000    5.962000000000
 PRIMCOORD 2
 2 1
 16      0.0000000000     0.0000000000     0.0000000000
 30      1.59050000000000000000    -1.59050000000000000000    -1.59050000000000000000
 PRIMVEC 3
    3.25200000000    3.25200000000    0.0000000000
    3.25200000000    0.0000000000    3.25200000000
    0.0000000000    3.25200000000    3.25200000000
 CONVVEC 3
    6.504000000000    0.0000000000    0.0000000000
    0.0000000000    6.504000000000    0.0000000000
    0.0000000000    0.0000000000    6.504000000000
 PRIMCOORD 3
 2 1
 16      0.0000000000     0.0000000000     0.0000000000
 30      1.82600000000000000000    -1.82600000000000000000    -1.82600000000000000000
 PRIMVEC 4
    3.52300000000    3.52300000000    0.0000000000
    3.52300000000    0.0000000000    3.52300000000
    0.0000000000    3.52300000000    3.52300000000
 CONVVEC 4
    7.046000000000    0.0000000000    0.0000000000
    0.0000000000    7.046000000000    0.0000000000
    0.0000000000    0.0000000000    7.046000000000
 PRIMCOORD 4
 2 1
 16      0.0000000000     0.0000000000     0.0000000000
 30      2.06150000000000000000    -2.06150000000000000000    -2.06150000000000000000
 PRIMVEC 5
    3.25200000000    3.25200000000    0.0000000000
    3.25200000000    0.0000000000    3.25200000000
    0.0000000000    3.25200000000    3.25200000000
 CONVVEC 5
    6.504000000000    0.0000000000    0.0000000000
    0.0000000000    6.504000000000    0.0000000000
    0.0000000000    0.0000000000    6.504000000000
 PRIMCOORD 5
 2 1
 16      0.0000000000     0.0000000000     0.0000000000
 30      1.82600000000000000000    -1.82600000000000000000    -1.82600000000000000000
 PRIMVEC 6
    2.98100000000    2.98100000000    0.0000000000
    2.98100000000    0.0000000000    2.98100000000
    0.0000000000    2.98100000000    2.98100000000
 CONVVEC 6
    5.962000000000    0.0000000000    0.0000000000
    0.0000000000    5.962000000000    0.0000000000
    0.0000000000    0.0000000000    5.962000000000
 PRIMCOORD 6
 2 1
 16      0.0000000000     0.0000000000     0.0000000000
 30      1.59050000000000000000    -1.59050000000000000000    -1.59050000000000000000
 PRIMVEC 7
    2.71000000000    2.71000000000    0.0000000000
    2.71000000000    0.0000000000    2.71000000000
    0.0000000000    2.71000000000    2.71000000000
 CONVVEC 7
    5.420000000000    0.0000000000    0.0000000000
    0.0000000000    5.420000000000    0.0000000000
    0.0000000000    0.0000000000    5.420000000000
 PRIMCOORD 7
 2 1
 16      0.0000000000     0.0000000000     0.0000000000
 30      1.35500000000000000000    -1.35500000000000000000    -1.35500000000000000000
 PRIMVEC 8
    2.43900000000    2.43900000000    0.0000000000
    2.43900000000    0.0000000000    2.43900000000
    0.0000000000    2.43900000000    2.43900000000
 CONVVEC 8
    4.878000000000    0.0000000000    0.0000000000
    0.0000000000    4.878000000000    0.0000000000
    0.0000000000    0.0000000000    4.878000000000
 PRIMCOORD 8
 2 1
 16      0.0000000000     0.0000000000     0.0000000000
 30      1.11950000000000000000    -1.11950000000000000000    -1.11950000000000000000
 PRIMVEC 9
    2.16800000000    2.16800000000    0.0000000000
    2.16800000000    0.0000000000    2.16800000000
    0.0000000000    2.16800000000    2.16800000000
 CONVVEC 9
    4.336000000000    0.0000000000    0.0000000000
    0.0000000000    4.336000000000    0.0000000000
    0.0000000000    0.0000000000    4.336000000000
 PRIMCOORD 9
 2 1
 16      0.0000000000     0.0000000000     0.0000000000
 30      .88400000000000000000    -.88400000000000000000    -.88400000000000000000
 PRIMVEC 10
    1.89700000000    1.89700000000    0.0000000000
    1.89700000000    0.0000000000    1.89700000000
    0.0000000000    1.89700000000    1.89700000000
 CONVVEC 10
    3.794000000000    0.0000000000    0.0000000000
    0.0000000000    3.794000000000    0.0000000000
    0.0000000000    0.0000000000    3.794000000000
 PRIMCOORD 10
 2 1
 16      0.0000000000     0.0000000000     0.0000000000
 30      .64850000000000000000    -.64850000000000000000    -.64850000000000000000
 PRIMVEC 11
    2.16800000000    2.16800000000    0.0000000000
    2.16800000000    0.0000000000    2.16800000000
    0.0000000000    2.16800000000    2.16800000000
 CONVVEC 11
    4.336000000000    0.0000000000    0.0000000000
    0.0000000000    4.336000000000    0.0000000000
    0.0000000000    0.0000000000    4.336000000000
 PRIMCOORD 11
 2 1
 16      0.0000000000     0.0000000000     0.0000000000
 30      .88400000000000000000    -.88400000000000000000    -.88400000000000000000
 PRIMVEC 12
    2.43900000000    2.43900000000    0.0000000000
    2.43900000000    0.0000000000    2.43900000000
    0.0000000000    2.43900000000    2.43900000000
 CONVVEC 12
    4.878000000000    0.0000000000    0.0000000000
    0.0000000000    4.878000000000    0.0000000000
    0.0000000000    0.0000000000    4.878000000000
 PRIMCOORD 12
 2 1
 16      0.0000000000     0.0000000000     0.0000000000
 30      1.11950000000000000000    -1.11950000000000000000    -1.11950000000000000000
 PRIMVEC 13
    2.71000000000    2.71000000000    0.0000000000
    2.71000000000    0.0000000000    2.71000000000
    0.0000000000    2.71000000000    2.71000000000
 CONVVEC 13
    5.420000000000    0.0000000000    0.0000000000
    0.0000000000    5.420000000000    0.0000000000
    0.0000000000    0.0000000000    5.420000000000
 PRIMCOORD 13
 2 1
 16      0.0000000000     0.0000000000     0.0000000000
 30      1.35500000000000000000    -1.35500000000000000000    -1.35500000000000000000
