LAMMPS Description

     6  atoms
     5  bonds
     5  angles
     0  dihedrals
     0  impropers

     7  atom types
     6  bond types
     5  angle types

  -50 50.0 xlo xhi
  -50 50.0 ylo yhi
  -50 50.0 zlo zhi

Masses

1 40.000  # Water
2 40.000  # hydro
3 90.000  # chol
4 90.000  # phos
5 62.000  # glyc
6 62.000  # ester
7 42.000  # C-tail

Atoms  # hybrid angle dipole sphere

1 2 0.0 0.0 20.295 1 0.0 0.416 0.0 0.0 4.6 0.8
2 7 0.0 0.0 16.2 1 0.0 0.0 0.0 0.0 4.5 0.9
3 7 0.0 0.0 12.15 1 0.0 0.0 0.0 0.0 4.5 0.9
4 7 0.0 0.0 8.1 1 0.0 0.0 0.0 0.0 4.5 0.9
5 7 0.0 0.0 4.05 1 0.0 0.0 0.0 0.0 4.5 0.9
6 7 0.0 0.0 0.0 1 0.0 0.0 0.0 0.0 4.5 0.9

Bonds

1 6 1 2
2 5 2 3
3 5 3 4
4 5 4 5
5 5 5 6

Angles

1 3 1 2 3
2 5 1 2 3
3 3 2 3 4
4 3 3 4 5
5 3 4 5 6

