CH4 MD.                                 
           1
     9.608079   -0.000022    0.000250
     0.000000    9.614584    0.000886
     0.000000    0.000000    9.609973
   C    H 
  40 160
Direct configuration=     1
   0.12480915  0.12503960  0.16669743
   0.12455045  0.12508418  0.49977665
   0.12499783  0.12481392  0.83336998
   0.12481442  0.37509394  0.16678508
   0.12520446  0.37492673  0.50032528
   0.12499326  0.37486675  0.83336576
   0.12507287  0.62515547  0.16667493
   0.12481935  0.62519507  0.49988130
   0.12492772  0.62472961  0.83331522
   0.12457206  0.87471335  0.16691030
   0.12479451  0.87497324  0.49959553
   0.12471431  0.87500890  0.83340642
   0.37473888  0.12509534  0.16656547
   0.37510665  0.12475540  0.50002054
   0.37504546  0.12498678  0.83344463
   0.37508519  0.37469999  0.16673725
   0.37451112  0.37509432  0.49990979
   0.37512022  0.37477057  0.83328475
   0.37502772  0.62506997  0.16669924
   0.37509612  0.62520924  0.50016630
   0.37511222  0.62519476  0.83334375
   0.37505784  0.87482537  0.16695001
   0.37483756  0.87487950  0.49977478
   0.37459201  0.87512211  0.83336958
   0.62493523  0.12476070  0.16653359
   0.62515983  0.12512483  0.49975079
   0.62487402  0.12517404  0.83354613
   0.62490257  0.37501758  0.16659052
   0.62529046  0.37500551  0.49987779
   0.62516459  0.37466984  0.83310762
   0.62512186  0.62529640  0.16641798
   0.62491174  0.62514770  0.49991089
   0.62527730  0.62509287  0.83337991
   0.62505183  0.87496348  0.16687415
   0.62505030  0.87502682  0.50019641
   0.62485723  0.87494893  0.83341749
   0.87487310  0.12513807  0.16641452
   0.87504336  0.12476204  0.50008846
   0.87496114  0.12482352  0.83328575
   0.87480016  0.37465542  0.16651828
   0.19155615  0.19142146  0.23428738
   0.19070494  0.05698597  0.09892180
   0.05800714  0.19291859  0.09893701
   0.05821267  0.05731897  0.23261307
   0.19291269  0.19138686  0.56758228
   0.19260105  0.05817736  0.43299147
   0.05679841  0.19252282  0.43211017
   0.05812510  0.05800206  0.56823916
   0.19252559  0.19316627  0.90189733
   0.19233559  0.05819376  0.76632563
   0.05803105  0.19328241  0.76708755
   0.05684753  0.05669148  0.89973956
   0.19121216  0.44193629  0.23461795
   0.19210183  0.30847569  0.09928672
   0.05769429  0.44180738  0.09907666
   0.05877368  0.30646983  0.23321345
   0.19295221  0.44272614  0.56766553
   0.19192541  0.30738777  0.43296125
   0.05673299  0.44285199  0.43222434
   0.05898256  0.30762482  0.56709702
   0.19124860  0.44271108  0.90102655
   0.19304633  0.30880008  0.76680137
   0.05720556  0.44209962  0.76676123
   0.05742907  0.30768480  0.90054738
   0.19234063  0.69347870  0.23370321
   0.19172351  0.55767757  0.09894952
   0.05835378  0.69175684  0.09951308
   0.05759516  0.55757289  0.23411577
   0.19204651  0.69298472  0.56894225
   0.19231913  0.55778244  0.43267144
   0.05787890  0.69232478  0.43255843
   0.05799753  0.55735146  0.56731114
   0.19393066  0.69002696  0.90094732
   0.19148852  0.55726852  0.76606337
   0.05670692  0.69222138  0.76614693
   0.05905000  0.55787275  0.90077631
   0.19149160  0.94203888  0.23422924
   0.19192316  0.80882560  0.09947717
   0.05835270  0.94257222  0.09936615
   0.05893471  0.80810772  0.23400866
   0.19209457  0.94262204  0.56621570
   0.19182718  0.80855503  0.43235117
   0.05733557  0.94104500  0.43217857
   0.05822114  0.80762582  0.56669371
   0.19181561  0.94297365  0.90132089
   0.19305776  0.80661076  0.76589609
   0.05798108  0.94219063  0.76539229
   0.05624192  0.80670128  0.90007960
   0.44208590  0.19151135  0.23354420
   0.44236957  0.05743845  0.09899324
   0.30741680  0.19181247  0.09940906
   0.30823972  0.05875768  0.23286223
   0.44276906  0.19249681  0.56708273
   0.44236511  0.05777800  0.43223141
   0.30772486  0.19195278  0.43343857
   0.30878420  0.05781834  0.56808073
   0.44291226  0.19112474  0.90215433
   0.44124945  0.05775420  0.76557787
   0.30691517  0.19141930  0.76506976
   0.30815371  0.05631050  0.90080287
   0.44156444  0.44234616  0.23395301
   0.44235702  0.30819067  0.09846805
   0.30702607  0.44219128  0.09776492
   0.30700987  0.30711892  0.23431082
   0.44197216  0.44269346  0.56865859
   0.44314753  0.30791268  0.43292529
   0.30790420  0.44168507  0.43193383
   0.30757527  0.30876147  0.56800776
   0.44145722  0.44410018  0.89942306
   0.44250612  0.30848884  0.76542069
   0.30785904  0.44288349  0.76571041
   0.30806003  0.30698187  0.89954403
   0.44231829  0.69143182  0.23357600
   0.44243469  0.55784558  0.10007862
   0.30771857  0.69216731  0.09934127
   0.30759976  0.55693814  0.23311250
   0.44196141  0.69247157  0.56847325
   0.44126428  0.55792054  0.43211601
   0.30789869  0.69272174  0.43262976
   0.30684599  0.55801544  0.56740256
   0.44135272  0.69166490  0.89982995
   0.44231703  0.55726587  0.76543982
   0.30737017  0.69218758  0.76742527
   0.30719271  0.55796115  0.90131967
   0.44205155  0.94184098  0.23352617
   0.44251415  0.80765264  0.10022829
   0.30790343  0.94344294  0.09946152
   0.30873980  0.80724234  0.23370267
   0.44174317  0.94248855  0.56746709
   0.44206104  0.80775928  0.43325100
   0.30761446  0.94267605  0.43269790
   0.30669588  0.80844808  0.56616952
   0.44285361  0.94299371  0.90149968
   0.44275059  0.80760519  0.76593753
   0.30736143  0.94015759  0.76567617
   0.30739570  0.80635274  0.90045012
   0.69251687  0.19253103  0.23492828
   0.69145652  0.05692408  0.09876866
   0.55746041  0.19157381  0.09942723
   0.55879044  0.05760757  0.23393882
   0.69228659  0.19217447  0.56753531
   0.69239732  0.05737868  0.43308343
   0.55819697  0.19303556  0.43255158
   0.55787135  0.05760527  0.56681125
   0.69237628  0.19237134  0.90087773
   0.69198385  0.05829976  0.76558592
   0.55748952  0.19242058  0.76625399
   0.55921792  0.05818021  0.90030703
   0.69065034  0.44179781  0.23449922
   0.69158712  0.30846634  0.10003768
   0.55826911  0.44208411  0.10124719
   0.55706403  0.30747423  0.23457832
   0.69194969  0.44337413  0.56688891
   0.69261563  0.30857517  0.43356275
   0.55745971  0.44150461  0.43215402
   0.55747578  0.30673307  0.56723175
   0.69323984  0.44265863  0.90045822
   0.69269594  0.30769799  0.76535587
   0.55666074  0.44152482  0.76638776
   0.55858927  0.30709339  0.90098981
   0.69231458  0.69215982  0.23397853
   0.69195646  0.55750164  0.09998230
   0.55773451  0.69091479  0.10055801
   0.55799992  0.55766359  0.23347800
   0.69218823  0.69193507  0.56776070
   0.69255416  0.55807263  0.43330036
   0.55787793  0.69309408  0.43204378
   0.55666519  0.55712890  0.56770828
   0.69161531  0.69171050  0.90059150
   0.69218002  0.55697378  0.76634555
   0.55792950  0.69241519  0.76659044
   0.55700945  0.55842933  0.89972733
   0.69168901  0.94288039  0.23518771
   0.69147844  0.80738739  0.09962872
   0.55811266  0.94208308  0.10010579
   0.55739719  0.80747047  0.23430158
   0.69264121  0.94223527  0.56746001
   0.69203422  0.80691926  0.43295776
   0.55828219  0.94198177  0.43283592
   0.55888180  0.80835509  0.56708413
   0.69295740  0.94193256  0.89990720
   0.69352619  0.80829721  0.76714101
   0.55875105  0.94325937  0.76625496
   0.55815887  0.80721688  0.90004695
   0.94207560  0.19294452  0.23264531
   0.94182913  0.05727884  0.09935441
   0.80850117  0.19336614  0.09930567
   0.80721756  0.05885856  0.23357362
   0.94260144  0.19198598  0.56776490
   0.94310814  0.05837463  0.43307708
   0.80775340  0.19118628  0.43264884
   0.80852617  0.05684762  0.56646343
   0.94159275  0.19231611  0.90101241
   0.94151713  0.05709778  0.76572364
   0.80756119  0.19218302  0.76583777
   0.80770335  0.05721295  0.90046392
   0.94270796  0.44144860  0.23316368
   0.94281679  0.30768401  0.09944368
   0.80735953  0.44124208  0.10042516
   0.80738186  0.30819921  0.23283514
CH4 MD.                                 
           1
     9.606560   -0.000415    0.000789
     0.000000    9.618905    0.001359
    -0.000000    0.000000    9.609713
   C    H 
  40 160
Direct configuration=     2
   0.12462970  0.12504407  0.16670684
   0.12406642  0.12510649  0.49952407
   0.12498443  0.12460097  0.83338897
   0.12465581  0.37514995  0.16692567
   0.12540284  0.37488934  0.50063699
   0.12499690  0.37474883  0.83336175
   0.12513883  0.62526256  0.16668038
   0.12459436  0.62535643  0.49980078
   0.12485739  0.62442258  0.83325179
   0.12413619  0.87442787  0.16714610
   0.12461265  0.87492342  0.49921251
   0.12444634  0.87501795  0.83347704
   0.37448999  0.12518514  0.16646535
   0.37518081  0.12450163  0.49998269
   0.37508520  0.12498346  0.83357456
   0.37515621  0.37440581  0.16682255
   0.37399874  0.37521134  0.49980485
   0.37526739  0.37454120  0.83324089
   0.37503024  0.62519401  0.16675427
   0.37517453  0.62540585  0.50029264
   0.37525920  0.62542045  0.83334772
   0.37510655  0.87469068  0.16723080
   0.37471766  0.87481275  0.49953052
   0.37420194  0.87522674  0.83340623
   0.62484949  0.12456005  0.16640214
   0.62537413  0.12521807  0.49954344
   0.62479181  0.12532515  0.83376582
   0.62482196  0.37503603  0.16651849
   0.62555333  0.37501981  0.49979522
   0.62532357  0.37435361  0.83286168
   0.62521379  0.62555178  0.16614998
   0.62483906  0.62528878  0.49985305
   0.62555941  0.62514979  0.83341659
   0.62506891  0.87489222  0.16707873
   0.62512875  0.87503858  0.50043387
   0.62473470  0.87489055  0.83351146
   0.87473240  0.12526167  0.16618721
   0.87510121  0.12455367  0.50015802
   0.87490643  0.12464922  0.83324262
   0.87458899  0.37430756  0.16633185
   0.19071258  0.19055609  0.23458731
   0.18909021  0.05634079  0.09854393
   0.05844556  0.19351009  0.09866756
   0.05872132  0.05700684  0.23120824
   0.19351653  0.19041183  0.56771922
   0.19269419  0.05881644  0.43324734
   0.05599560  0.19261431  0.43160953
   0.05870429  0.05842293  0.56908398
   0.19256312  0.19398048  0.90321668
   0.19221468  0.05883182  0.76694413
   0.05833602  0.19419539  0.76799881
   0.05600997  0.05577965  0.89886263
   0.19006921  0.44132761  0.23527844
   0.19192039  0.30933859  0.09906273
   0.05783729  0.44129751  0.09884819
   0.05990746  0.30522899  0.23232386
   0.19343636  0.44296038  0.56802000
   0.19153407  0.30708312  0.43328964
   0.05589305  0.44342268  0.43184845
   0.06029687  0.30754039  0.56670145
   0.19013920  0.44313003  0.90141546
   0.19362598  0.30993569  0.76765355
   0.05662428  0.44170070  0.76747782
   0.05732221  0.30774882  0.90038117
   0.19231409  0.69451477  0.23343500
   0.19110753  0.55782101  0.09853020
   0.05906494  0.69110326  0.09971516
   0.05771527  0.55745604  0.23412446
   0.19157143  0.69348085  0.57043737
   0.19215780  0.55810387  0.43272567
   0.05795483  0.69249451  0.43255943
   0.05839579  0.55714607  0.56730516
   0.19541063  0.68779203  0.90115411
   0.19066148  0.55704519  0.76596992
   0.05569343  0.69213323  0.76629766
   0.06039693  0.55805015  0.90091864
   0.19054015  0.94166868  0.23434670
   0.19155238  0.80999920  0.09972710
   0.05920241  0.94267272  0.09952569
   0.06033565  0.80883916  0.23406785
   0.19178625  0.94278082  0.56494639
   0.19136261  0.80934768  0.43210296
   0.05703370  0.93956342  0.43177013
   0.05887677  0.80755969  0.56598356
   0.19122707  0.94359465  0.90202078
   0.19391544  0.80538486  0.76580197
   0.05819774  0.94201303  0.76482153
   0.05480213  0.80576924  0.89943370
   0.44180364  0.19069620  0.23304627
   0.44226587  0.05728107  0.09889945
   0.30720586  0.19136803  0.09951025
   0.30878671  0.05986751  0.23162881
   0.44307681  0.19259016  0.56670395
   0.44242764  0.05789761  0.43165166
   0.30779477  0.19163586  0.43417878
   0.30989308  0.05808469  0.56873032
   0.44328139  0.18998337  0.90359604
   0.44011649  0.05798166  0.76505775
   0.30615245  0.19047779  0.76402314
   0.30862225  0.05506209  0.90099166
   0.44079055  0.44227273  0.23378870
   0.44236309  0.30894509  0.09767440
   0.30644908  0.44188967  0.09616283
   0.30640657  0.30661467  0.23456715
   0.44152143  0.44310225  0.56980046
   0.44385644  0.30834189  0.43318074
   0.30815755  0.44076126  0.43097571
   0.30754676  0.30984995  0.56864162
   0.44058487  0.44581928  0.89823520
   0.44260279  0.30922176  0.76490263
   0.30793412  0.44330472  0.76544620
   0.30847248  0.30645423  0.89853269
   0.44232541  0.69045579  0.23325129
   0.44235771  0.55815187  0.10079028
   0.30773417  0.69201718  0.09922691
   0.30745776  0.55609761  0.23234800
   0.44158497  0.69256314  0.56948407
   0.44007312  0.55827114  0.43161201
   0.30811240  0.69296827  0.43256030
   0.30602754  0.55841149  0.56755925
   0.44037650  0.69077227  0.89902340
   0.44219225  0.55693291  0.76495078
   0.30705881  0.69193917  0.76894421
   0.30666905  0.55825481  0.90191210
   0.44168800  0.94142045  0.23303697
   0.44273857  0.80757399  0.10102099
   0.30808884  0.94445546  0.09956515
   0.30982919  0.80669103  0.23334301
   0.44126648  0.94276237  0.56747096
   0.44175066  0.80792025  0.43377064
   0.30755315  0.94299416  0.43278384
   0.30579468  0.80926496  0.56499974
   0.44329885  0.94375573  0.90230982
   0.44317251  0.80759758  0.76593665
   0.30721157  0.93791930  0.76527694
   0.30702312  0.80504279  0.90020208
   0.69261492  0.19272495  0.23568193
   0.69055774  0.05622710  0.09833465
   0.55726332  0.19058143  0.09953564
   0.55994540  0.05756866  0.23392195
   0.69223530  0.19206668  0.56753390
   0.69233495  0.05716187  0.43338462
   0.55868737  0.19392131  0.43238195
   0.55826784  0.05745778  0.56623320
   0.69241758  0.19234302  0.90111224
   0.69171473  0.05874776  0.76531490
   0.55724811  0.19256167  0.76664863
   0.56076793  0.05868724  0.89983099
   0.68894556  0.44115080  0.23491769
   0.69091957  0.30939423  0.10067205
   0.55906521  0.44174541  0.10302173
   0.55636990  0.30736926  0.23510487
   0.69162436  0.44440113  0.56654826
   0.69284640  0.30946298  0.43444627
   0.55724025  0.44057273  0.43174970
   0.55725474  0.30582550  0.56721816
   0.69399484  0.44281672  0.90029066
   0.69306587  0.30773801  0.76480988
   0.55580897  0.44076211  0.76682387
   0.55969253  0.30654228  0.90125453
   0.69232731  0.69181588  0.23413827
   0.69155663  0.55742219  0.10067682
   0.55796209  0.68940230  0.10185635
   0.55856635  0.55761010  0.23297699
   0.69216020  0.69150269  0.56811084
   0.69274069  0.55865256  0.43396772
   0.55813380  0.69383666  0.43155720
   0.55587471  0.55664921  0.56792635
   0.69098485  0.69099958  0.90047604
   0.69197272  0.55629729  0.76673149
   0.55829008  0.69251948  0.76729914
   0.55640357  0.55911362  0.89894360
   0.69088789  0.94352192  0.23629898
   0.69060721  0.80717352  0.09973438
   0.55860650  0.94176318  0.10099574
   0.55720700  0.80721081  0.23463139
   0.69289523  0.94207200  0.56753437
   0.69182118  0.80621864  0.43318475
   0.55889606  0.94169147  0.43292354
   0.56020760  0.80911490  0.56679058
   0.69360879  0.94156354  0.89935563
   0.69467004  0.80891263  0.76838815
   0.55988066  0.94405177  0.76644045
   0.55875744  0.80695545  0.89941385
   0.94172578  0.19344438  0.23140858
   0.94131693  0.05688620  0.09944682
   0.80928803  0.19420483  0.09926391
   0.80680451  0.06021305  0.23319801
   0.94285323  0.19138474  0.56816331
   0.94373783  0.05910830  0.43331188
   0.80782452  0.19007447  0.43257659
   0.80933886  0.05604706  0.56550718
   0.94087446  0.19232007  0.90123693
   0.94066426  0.05664939  0.76557720
   0.80748048  0.19204040  0.76564525
   0.80778553  0.05676647  0.90048046
   0.94302006  0.44066510  0.23234068
   0.94332940  0.30777102  0.09957481
   0.80687597  0.44012172  0.10161698
   0.80718842  0.30875844  0.23176301
CH4 MD.                                 
           1
     9.605245   -0.001013    0.001252
    -0.000000    9.623616    0.001530
     0.000000    0.000000    9.609333
   C    H 
  40 160
Direct configuration=     3
   0.12443423  0.12500766  0.16669177
   0.12357730  0.12510555  0.49930912
   0.12497483  0.12437530  0.83341833
   0.12450067  0.37522183  0.16710314
   0.12564138  0.37482004  0.50093513
   0.12504585  0.37460031  0.83334774
   0.12521834  0.62532812  0.16668027
   0.12435499  0.62548572  0.49973435
   0.12483160  0.62411772  0.83318358
   0.12369763  0.87416263  0.16735462
   0.12447637  0.87490105  0.49883607
   0.12418776  0.87501033  0.83355759
   0.37426410  0.12524386  0.16637442
   0.37521761  0.12426304  0.49995096
   0.37510444  0.12500963  0.83372340
   0.37520963  0.37413602  0.16687691
   0.37352998  0.37534324  0.49973554
   0.37540765  0.37428517  0.83318940
   0.37505648  0.62527655  0.16678574
   0.37524860  0.62559926  0.50040726
   0.37542527  0.62564250  0.83337035
   0.37519760  0.87453733  0.16753085
   0.37460562  0.87473684  0.49930668
   0.37380067  0.87528912  0.83346744
   0.62474654  0.12437777  0.16628176
   0.62561957  0.12527262  0.49935688
   0.62471584  0.12548243  0.83397452
   0.62472749  0.37505535  0.16648997
   0.62582086  0.37503081  0.49969523
   0.62546337  0.37405367  0.83257706
   0.62533400  0.62582879  0.16591719
   0.62478507  0.62543669  0.49979469
   0.62587259  0.62522485  0.83346103
   0.62504773  0.87484522  0.16727015
   0.62522568  0.87508019  0.50069170
   0.62461208  0.87484942  0.83359227
   0.87460533  0.12537207  0.16601047
   0.87516582  0.12437857  0.50019552
   0.87484857  0.12449504  0.83318392
   0.87442122  0.37400443  0.16615144
   0.18973327  0.18964296  0.23488827
   0.18761833  0.05576248  0.09818229
   0.05901022  0.19404604  0.09843952
   0.05916743  0.05663947  0.22974747
   0.19412192  0.18940946  0.56776285
   0.19269854  0.05937640  0.43355902
   0.05520285  0.19270978  0.43115441
   0.05933503  0.05876755  0.56989511
   0.19267493  0.19481287  0.90456436
   0.19210837  0.05944289  0.76763966
   0.05864095  0.19514390  0.76889785
   0.05539559  0.05483891  0.89793855
   0.18896154  0.44078276  0.23596887
   0.19183159  0.31015485  0.09875789
   0.05801316  0.44070769  0.09841902
   0.06105411  0.30391588  0.23137140
   0.19401371  0.44327604  0.56842086
   0.19103745  0.30682408  0.43358872
   0.05520536  0.44391471  0.43147832
   0.06153762  0.30747529  0.56634709
   0.18896999  0.44339075  0.90193691
   0.19408476  0.31088271  0.76846010
   0.05593410  0.44143045  0.76814490
   0.05719918  0.30784412  0.90017740
   0.19217521  0.69544211  0.23315330
   0.19042639  0.55797743  0.09805485
   0.05987708  0.69037786  0.09988546
   0.05779819  0.55735539  0.23409699
   0.19123903  0.69382712  0.57197332
   0.19196903  0.55825487  0.43283523
   0.05806939  0.69279176  0.43238771
   0.05878948  0.55686961  0.56727223
   0.19688757  0.68534693  0.90146227
   0.18992510  0.55685327  0.76588073
   0.05476548  0.69192519  0.76634290
   0.06169948  0.55833655  0.90099744
   0.18944067  0.94125870  0.23439183
   0.19107010  0.81117507  0.09999114
   0.06008445  0.94271807  0.09974188
   0.06169433  0.80948960  0.23403568
   0.19143228  0.94300585  0.56358176
   0.19095290  0.81018458  0.43179798
   0.05670809  0.93802571  0.43123763
   0.05952579  0.80746495  0.56538761
   0.19063890  0.94413741  0.90255242
   0.19471939  0.80400877  0.76576969
   0.05834540  0.94179297  0.76429236
   0.05339426  0.80487188  0.89869970
   0.44151708  0.18975640  0.23248429
   0.44217682  0.05710269  0.09876956
   0.30681926  0.19094062  0.09967425
   0.30918439  0.06095243  0.23033171
   0.44332282  0.19274850  0.56634605
   0.44258720  0.05796612  0.43121300
   0.30799598  0.19139855  0.43499434
   0.31092450  0.05825767  0.56920005
   0.44363958  0.18881950  0.90496837
   0.43903078  0.05816579  0.76453126
   0.30541717  0.18947181  0.76309745
   0.30910257  0.05387388  0.90131987
   0.44004462  0.44206359  0.23373895
   0.44260869  0.30961639  0.09688092
   0.30597665  0.44175081  0.09455167
   0.30583939  0.30617061  0.23483672
   0.44089020  0.44350128  0.57103741
   0.44447829  0.30885504  0.43326062
   0.30824439  0.43979237  0.43016612
   0.30751243  0.31102470  0.56922540
   0.43988356  0.44759700  0.89694740
   0.44269592  0.31008177  0.76440704
   0.30816134  0.44375732  0.76526640
   0.30898632  0.30604359  0.89755119
   0.44227720  0.68946245  0.23285843
   0.44221747  0.55838644  0.10128190
   0.30775769  0.69182587  0.09911932
   0.30724672  0.55521502  0.23168556
   0.44115649  0.69273073  0.57047235
   0.43889546  0.55852942  0.43104475
   0.30840815  0.69312375  0.43229083
   0.30546880  0.55869272  0.56765581
   0.43943572  0.68974283  0.89828506
   0.44202409  0.55665897  0.76445292
   0.30687486  0.69170607  0.77042820
   0.30615493  0.55853619  0.90241489
   0.44129042  0.94095195  0.23260563
   0.44286242  0.80737676  0.10183487
   0.30825161  0.94531059  0.09956205
   0.31088508  0.80602910  0.23307722
   0.44070917  0.94292527  0.56745173
   0.44145567  0.80810185  0.43424249
   0.30760476  0.94317378  0.43287623
   0.30505243  0.81012861  0.56395744
   0.44377575  0.94452235  0.90321511
   0.44348014  0.80753183  0.76590539
   0.30699905  0.93575347  0.76488499
   0.30674428  0.80379617  0.89987965
   0.69279263  0.19293701  0.23650372
   0.68973832  0.05546297  0.09801593
   0.55720696  0.18947877  0.09972685
   0.56113950  0.05773961  0.23378731
   0.69214262  0.19197116  0.56759935
   0.69227681  0.05698906  0.43367744
   0.55911641  0.19460826  0.43222560
   0.55872358  0.05730702  0.56581433
   0.69234805  0.19225241  0.90149793
   0.69147122  0.05908931  0.76506153
   0.55711560  0.19254648  0.76720783
   0.56229187  0.05929553  0.89913306
   0.68717205  0.44062304  0.23533189
   0.69025059  0.31041405  0.10121873
   0.55987196  0.44134752  0.10462911
   0.55555937  0.30717577  0.23560282
   0.69129525  0.44542177  0.56632934
   0.69309532  0.31026143  0.43546088
   0.55708350  0.43972337  0.43127478
   0.55709873  0.30474345  0.56730230
   0.69466432  0.44282285  0.90013380
   0.69351448  0.30771880  0.76423162
   0.55496854  0.44000539  0.76731295
   0.56081498  0.30591801  0.90154638
   0.69232485  0.69152279  0.23422159
   0.69120656  0.55755619  0.10130186
   0.55812615  0.68800857  0.10321825
   0.55909605  0.55753043  0.23231038
   0.69207203  0.69095379  0.56835216
   0.69289792  0.55930203  0.43461311
   0.55847718  0.69450274  0.43111135
   0.55511498  0.55606064  0.56839358
   0.69041117  0.69007788  0.90037609
   0.69181252  0.55571487  0.76699824
   0.55852752  0.69264328  0.76789396
   0.55581392  0.55969296  0.89813662
   0.69012362  0.94410755  0.23739737
   0.68970042  0.80692939  0.09969486
   0.55908596  0.94141702  0.10191420
   0.55702026  0.80695068  0.23486513
   0.69308343  0.94175116  0.56758547
   0.69157937  0.80554541  0.43350792
   0.55941408  0.94129252  0.43287451
   0.56140926  0.81004380  0.56665245
   0.69425476  0.94111800  0.89894397
   0.69570064  0.80944031  0.76970965
   0.56116157  0.94470344  0.76667806
   0.55928213  0.80668012  0.89878184
   0.94147987  0.19408046  0.23005888
   0.94080372  0.05664681  0.09957472
   0.80980535  0.19498129  0.09921756
   0.80649354  0.06170544  0.23274601
   0.94320043  0.19063749  0.56854381
   0.94440953  0.05992139  0.43336700
   0.80788739  0.18886342  0.43264579
   0.81031130  0.05539416  0.56448509
   0.94018677  0.19240283  0.90151679
   0.93983341  0.05617686  0.76533127
   0.80739149  0.19193674  0.76541441
   0.80799087  0.05631882  0.90044771
   0.94332444  0.43972794  0.23146791
   0.94394538  0.30771411  0.09970107
   0.80632221  0.43884285  0.10278897
   0.80712154  0.30928301  0.23064188
CH4 MD.                                 
           1
     9.604205   -0.001663    0.001739
    -0.000000    9.629024    0.001452
     0.000000    0.000000    9.608728
   C    H 
  40 160
Direct configuration=     4
   0.12423829  0.12499163  0.16667465
   0.12310248  0.12509755  0.49912462
   0.12500961  0.12413677  0.83343279
   0.12439983  0.37526003  0.16726055
   0.12586407  0.37473029  0.50126548
   0.12506046  0.37447564  0.83333167
   0.12526731  0.62540546  0.16669705
   0.12408421  0.62559665  0.49965767
   0.12479389  0.62386337  0.83308805
   0.12335173  0.87392654  0.16751030
   0.12435016  0.87491793  0.49848466
   0.12392339  0.87500553  0.83365943
   0.37398863  0.12525671  0.16628433
   0.37527074  0.12405338  0.49989944
   0.37513837  0.12506127  0.83388099
   0.37522209  0.37389649  0.16693617
   0.37306378  0.37544184  0.49962564
   0.37554161  0.37399113  0.83313993
   0.37512832  0.62536009  0.16683471
   0.37526842  0.62578655  0.50054493
   0.37562066  0.62585372  0.83339526
   0.37524963  0.87439159  0.16787920
   0.37447429  0.87461792  0.49905482
   0.37343448  0.87532963  0.83347743
   0.62461718  0.12421926  0.16616106
   0.62582853  0.12529841  0.49917878
   0.62462435  0.12564635  0.83421480
   0.62462394  0.37508244  0.16648541
   0.62604288  0.37501413  0.49956683
   0.62561216  0.37381917  0.83227781
   0.62540769  0.62606085  0.16568388
   0.62475167  0.62559818  0.49973607
   0.62620163  0.62536788  0.83351772
   0.62501506  0.87476124  0.16746885
   0.62532012  0.87513004  0.50098578
   0.62446372  0.87477481  0.83366678
   0.87445467  0.12546364  0.16585005
   0.87525436  0.12420729  0.50025256
   0.87476085  0.12436517  0.83310649
   0.87423689  0.37367745  0.16596260
   0.18880102  0.18881062  0.23519930
   0.18619787  0.05519365  0.09789259
   0.05946614  0.19455967  0.09813793
   0.05961617  0.05621126  0.22832234
   0.19471180  0.18852469  0.56777993
   0.19258604  0.05993975  0.43390180
   0.05444709  0.19281625  0.43063495
   0.06009566  0.05906645  0.57084441
   0.19274096  0.19571712  0.90584290
   0.19193826  0.06016367  0.76844682
   0.05900487  0.19598518  0.76954027
   0.05482545  0.05384716  0.89681600
   0.18798384  0.44022249  0.23665664
   0.19163154  0.31091754  0.09838762
   0.05827460  0.44022318  0.09771803
   0.06202818  0.30276868  0.23043712
   0.19450592  0.44350681  0.56861446
   0.19054939  0.30667956  0.43385704
   0.05433663  0.44434095  0.43109599
   0.06248544  0.30742039  0.56605201
   0.18779610  0.44353352  0.90235648
   0.19460647  0.31191192  0.76930014
   0.05525944  0.44115688  0.76876435
   0.05691171  0.30795372  0.89986569
   0.19208111  0.69618967  0.23281767
   0.18968365  0.55809684  0.09767878
   0.06085132  0.68971257  0.10014842
   0.05766368  0.55716799  0.23410300
   0.19060888  0.69418313  0.57336043
   0.19180229  0.55822665  0.43291881
   0.05839065  0.69288511  0.43220868
   0.05932363  0.55666843  0.56720986
   0.19834327  0.68281035  0.90175427
   0.18925429  0.55658880  0.76584068
   0.05394055  0.69172402  0.76645693
   0.06295570  0.55858791  0.90109013
   0.18827746  0.94091337  0.23455683
   0.19062508  0.81223778  0.10039046
   0.06098366  0.94267472  0.10002499
   0.06310852  0.81020924  0.23415428
   0.19103806  0.94323057  0.56243417
   0.19054277  0.81104944  0.43162322
   0.05626533  0.93639192  0.43064458
   0.06036896  0.80735833  0.56475427
   0.18994986  0.94474253  0.90311607
   0.19535998  0.80259961  0.76584287
   0.05850497  0.94159829  0.76374776
   0.05204276  0.80414843  0.89795734
   0.44127774  0.18874922  0.23195966
   0.44219423  0.05698030  0.09869142
   0.30643731  0.19067906  0.09992555
   0.30952040  0.06210177  0.22902883
   0.44337776  0.19281045  0.56583436
   0.44278677  0.05788138  0.43075915
   0.30808736  0.19119916  0.43583416
   0.31201198  0.05824217  0.56979331
   0.44386825  0.18761948  0.90624537
   0.43812757  0.05846390  0.76417664
   0.30470247  0.18845910  0.76208333
   0.30949547  0.05257194  0.90159329
   0.43923133  0.44187029  0.23364216
   0.44286622  0.31026685  0.09612328
   0.30553141  0.44161503  0.09290468
   0.30535781  0.30572627  0.23533876
   0.44033540  0.44382972  0.57237705
   0.44505089  0.30946794  0.43329079
   0.30846408  0.43878764  0.42930611
   0.30769336  0.31232871  0.56969814
   0.43913754  0.44922264  0.89574789
   0.44275307  0.31085227  0.76396323
   0.30849763  0.44423878  0.76509146
   0.30939547  0.30574706  0.89658975
   0.44219452  0.68854313  0.23259573
   0.44202405  0.55863761  0.10177619
   0.30771071  0.69192390  0.09900077
   0.30712366  0.55444698  0.23106749
   0.44085482  0.69263047  0.57146504
   0.43772031  0.55883579  0.43042487
   0.30873494  0.69333727  0.43201485
   0.30503773  0.55909641  0.56782535
   0.43844152  0.68859012  0.89746616
   0.44185410  0.55634088  0.76395520
   0.30664928  0.69166727  0.77195934
   0.30571172  0.55873715  0.90273617
   0.44100291  0.94042185  0.23208345
   0.44304883  0.80724520  0.10257350
   0.30833991  0.94609301  0.09968328
   0.31194955  0.80548430  0.23287836
   0.44018801  0.94326579  0.56734478
   0.44103154  0.80813360  0.43469287
   0.30763159  0.94336724  0.43296271
   0.30430450  0.81097699  0.56287496
   0.44415857  0.94537010  0.90407218
   0.44378978  0.80756132  0.76592715
   0.30670597  0.93367632  0.76456117
   0.30640434  0.80264029  0.89955801
   0.69282321  0.19295336  0.23723002
   0.68895677  0.05478838  0.09757342
   0.55708007  0.18816443  0.09984954
   0.56222430  0.05805536  0.23355728
   0.69203136  0.19184264  0.56756752
   0.69233304  0.05681422  0.43396227
   0.55957373  0.19522335  0.43200751
   0.55912528  0.05717046  0.56554376
   0.69231360  0.19208382  0.90199671
   0.69109792  0.05929405  0.76468168
   0.55691306  0.19261097  0.76781228
   0.56365745  0.05992817  0.89850629
   0.68546176  0.43996781  0.23557442
   0.68967216  0.31150269  0.10159029
   0.56076809  0.44092766  0.10608043
   0.55469286  0.30706799  0.23605611
   0.69092570  0.44634509  0.56643529
   0.69330756  0.31091894  0.43647424
   0.55688323  0.43879457  0.43072153
   0.55700376  0.30375001  0.56743306
   0.69528957  0.44279957  0.90005693
   0.69408256  0.30781036  0.76376098
   0.55414649  0.43925718  0.76772780
   0.56190433  0.30537211  0.90189494
   0.69227178  0.69121008  0.23430567
   0.69095397  0.55782973  0.10196610
   0.55828285  0.68665214  0.10448752
   0.55969174  0.55757524  0.23155862
   0.69194010  0.69047510  0.56854458
   0.69314076  0.55992113  0.43520611