LAMMPS data file via write_data, version 4 Aug 2015, timestep = 100000

3000 atoms
2 atom types
2000 bonds
1 bond types
1000 angles
1 angle types

0.0000000000000000e+00 3.3440070249999998e+01 xlo xhi
0.0000000000000000e+00 3.3440070249999998e+01 ylo yhi
0.0000000000000000e+00 3.3440070249999998e+01 zlo zhi

Masses

1 1.008
2 15.9994

Pair Coeffs # lj/class2/coul/long

1 0.013 1.098
2 0.274 3.608

Bond Coeffs # class2

1 0.97 563.28 -1428.22 1902.12

Angle Coeffs # class2

1 103.7 49.84 -11.6 -8

BondBond Coeffs

1 -9.5 0.97 0.97

BondAngle Coeffs

1 22.35 22.35 0.97 0.97

Atoms # full

1 1 1 8.1610000000000005e-01 30.0873 26.5668 16.0875
2 1 2 -1.6322000000000001e+00 31.006 27.2606 15.7794
3 1 1 8.1610000000000005e-01 30.252 27.8891 16.4616
4 2 1 8.1610000000000005e-01 20.674 22.6328 0.462146
5 2 2 -1.6322000000000001e+00 20.5961 22.8488 -0.730519
6 2 1 8.1610000000000005e-01 20.0865 23.4043 0.136959
7 3 1 8.1610000000000005e-01 16.7618 5.50728 4.17237
8 3 2 -1.6322000000000001e+00 15.7224 5.37294 4.68377
9 3 1 8.1610000000000005e-01 15.9983 6.48665 5.05167
10 4 1 8.1610000000000005e-01 14.5441 25.0069 9.46204
11 4 2 -1.6322000000000001e+00 15.1464 25.9667 9.35025
12 4 1 8.1610000000000005e-01 15.6633 25.1453 9.94898
13 5 1 8.1610000000000005e-01 27.9147 31.2846 2.25612
14 5 2 -1.6322000000000001e+00 27.2325 31.323 1.31213
15 5 1 8.1610000000000005e-01 28.3263 30.8411 1.25644
16 6 1 8.1610000000000005e-01 22.5558 26.6108 22.2886
17 6 2 -1.6322000000000001e+00 22.6288 27.6377 22.9354
18 6 1 8.1610000000000005e-01 22.2081 27.8799 21.7951
19 7 1 8.1610000000000005e-01 20.4548 12.5139 29.0751
20 7 2 -1.6322000000000001e+00 20.6344 13.0022 30.1277
21 7 1 8.1610000000000005e-01 20.4689 13.9434 29.4349
22 8 1 8.1610000000000005e-01 21.2534 20.395 1.56095
23 8 2 -1.6322000000000001e+00 20.5367 19.4355 1.54273
24 8 1 8.1610000000000005e-01 20.0518 20.2536 2.21343
25 9 1 8.1610000000000005e-01 24.4374 4.88158 12.4603
26 9 2 -1.6322000000000001e+00 23.8585 4.85286 13.5333
27 9 1 8.1610000000000005e-01 23.9697 5.73568 12.7546
28 10 1 8.1610000000000005e-01 16.1838 23.6845 21.1904
29 10 2 -1.6322000000000001e+00 17.0441 22.8817 20.9779
30 10 1 8.1610000000000005e-01 17.356 23.9446 20.6144
31 11 1 8.1610000000000005e-01 6.66335 27.1236 0.392809
32 11 2 -1.6322000000000001e+00 7.70524 26.4981 0.313401
33 11 1 8.1610000000000005e-01 6.93408 26.8177 -0.515107
34 12 1 8.1610000000000005e-01 1.20235 24.0756 16.3736
35 12 2 -1.6322000000000001e+00 0.697479 23.5832 15.4045
36 12 1 8.1610000000000005e-01 0.132885 24.5114 15.8382
37 13 1 8.1610000000000005e-01 1.61528 12.7306 18.0365
38 13 2 -1.6322000000000001e+00 0.424737 12.4709 18.398
39 13 1 8.1610000000000005e-01 1.48283 11.7488 18.0031
40 14 1 8.1610000000000005e-01 14.8338 4.39221 27.3848
41 14 2 -1.6322000000000001e+00 15.5294 5.24952 26.9962
42 14 1 8.1610000000000005e-01 15.7826 4.18593 27.5702
43 15 1 8.1610000000000005e-01 21.3635 31.2666 2.58454
44 15 2 -1.6322000000000001e+00 21.7704 31.4467 1.52678
45 15 1 8.1610000000000005e-01 22.458 32.0594 2.19781
46 16 1 8.1610000000000005e-01 31.3277 28.9845 2.91332
47 16 2 -1.6322000000000001e+00 31.7722 27.8821 2.873
48 16 1 8.1610000000000005e-01 31.7122 28.0033 4.03461
49 17 1 8.1610000000000005e-01 5.82449 31.5722 30.3614
50 17 2 -1.6322000000000001e+00 5.65588 31.5827 31.5136
51 17 1 8.1610000000000005e-01 6.45211 31.0537 30.7529
52 18 1 8.1610000000000005e-01 32.7995 21.2989 21.7501
53 18 2 -1.6322000000000001e+00 33.3492 21.961 22.6531
54 18 1 8.1610000000000005e-01 33.5912 20.8413 23.0843
55 19 1 8.1610000000000005e-01 14.7659 0.167874 20.7883
56 19 2 -1.6322000000000001e+00 14.1499 0.612533 19.9414
57 19 1 8.1610000000000005e-01 15.182 1.1402 20.0047
58 20 1 8.1610000000000005e-01 29.1869 14.8199 7.44132
59 20 2 -1.6322000000000001e+00 29.3668 13.8303 6.76437
60 20 1 8.1610000000000005e-01 28.801 13.4926 7.70294
61 21 1 8.1610000000000005e-01 30.5425 6.80497 22.6629
62 21 2 -1.6322000000000001e+00 29.9435 7.39092 21.8312
63 21 1 8.1610000000000005e-01 29.1254 6.98315 22.5626
64 22 1 8.1610000000000005e-01 21.9866 11.99 0.339101
65 22 2 -1.6322000000000001e+00 22.6801 10.9911 0.187356
66 22 1 8.1610000000000005e-01 21.6607 10.5631 0.567274
67 23 1 8.1610000000000005e-01 31.8708 3.09089 23.2896
68 23 2 -1.6322000000000001e+00 32.5591 3.97054 23.7698
69 23 1 8.1610000000000005e-01 32.3 2.85663 24.3926
70 24 1 8.1610000000000005e-01 25.8784 4.61642 25.0908
71 24 2 -1.6322000000000001e+00 26.2621 5.37611 24.175
72 24 1 8.1610000000000005e-01 25.4498 5.91294 24.6748
73 25 1 8.1610000000000005e-01 8.46185 21.6788 26.5312
74 25 2 -1.6322000000000001e+00 8.09342 20.9898 25.5813
75 25 1 8.1610000000000005e-01 8.90637 21.8186 25.5721
76 26 1 8.1610000000000005e-01 4.67931 16.458 28.9619
77 26 2 -1.6322000000000001e+00 5.28851 17.018 29.7912
78 26 1 8.1610000000000005e-01 5.94023 16.6022 28.9447
79 27 1 8.1610000000000005e-01 12.3587 12.6235 15.2649
80 27 2 -1.6322000000000001e+00 12.8207 12.9333 14.1764
81 27 1 8.1610000000000005e-01 13.219 12.1859 15.0246
82 28 1 8.1610000000000005e-01 19.3961 17.131 5.99107
83 28 2 -1.6322000000000001e+00 20.2425 17.9298 6.44226
84 28 1 8.1610000000000005e-01 20.0486 17.8624 5.27658
85 29 1 8.1610000000000005e-01 32.5065 18.6202 -0.0197362
86 29 2 -1.6322000000000001e+00 32.4117 19.4579 0.766768
87 29 1 8.1610000000000005e-01 31.7234 18.4473 0.657667
88 30 1 8.1610000000000005e-01 2.31792 29.2303 1.40467
89 30 2 -1.6322000000000001e+00 2.618 29.1442 2.55313
90 30 1 8.1610000000000005e-01 3.37295 29.8712 2.29267
91 31 1 8.1610000000000005e-01 15.2396 35.8162 22.9693
92 31 2 -1.6322000000000001e+00 14.1902 1.74072 22.7936
93 31 1 8.1610000000000005e-01 14.5967 2.63208 22.1781
94 32 1 8.1610000000000005e-01 9.66855 19.9393 13.5115
95 32 2 -1.6322000000000001e+00 9.6437 21.1344 13.2217
96 32 1 8.1610000000000005e-01 10.5162 20.4033 12.7481
97 33 1 8.1610000000000005e-01 21.9645 28.446 5.99853
98 33 2 -1.6322000000000001e+00 21.7836 29.5694 5.45038
99 33 1 8.1610000000000005e-01 22.7122 28.8292 5.35754
100 34 1 8.1610000000000005e-01 32.6832 8.56665 28.9373
101 34 2 -1.6322000000000001e+00 0.244977 8.26016 29.4812
102 34 1 8.1610000000000005e-01 0.138266 7.60582 28.489
103 35 1 8.1610000000000005e-01 2.52158 25.6336 30.2931
104 35 2 -1.6322000000000001e+00 2.9127 26.3111 29.3145
105 35 1 8.1610000000000005e-01 1.81134 26.6288 29.533
106 36 1 8.1610000000000005e-01 3.97126 11.0382 25.6191
107 36 2 -1.6322000000000001e+00 5.203 11.0008 25.3197
108 36 1 8.1610000000000005e-01 4.5827 10.0039 24.9567
109 37 1 8.1610000000000005e-01 25.271 28.144 20.1822
110 37 2 -1.6322000000000001e+00 24.4729 28.6451 20.9151
111 37 1 8.1610000000000005e-01 24.9242 27.4784 20.825
112 38 1 8.1610000000000005e-01 -0.714223 23.1485 22.6214
113 38 2 -1.6322000000000001e+00 -0.889165 24.2841 22.5728
114 38 1 8.1610000000000005e-01 0.127195 23.6933 22.7085
115 39 1 8.1610000000000005e-01 18.5134 20.4432 24.4187
116 39 2 -1.6322000000000001e+00 18.513 20.5798 25.5934
117 39 1 8.1610000000000005e-01 17.947 21.5106 25.1571
118 40 1 8.1610000000000005e-01 2.77228 12.8765 26.0001
119 40 2 -1.6322000000000001e+00 2.87728 11.7153 25.9051
120 40 1 8.1610000000000005e-01 1.80514 11.9112 25.5946
121 41 1 8.1610000000000005e-01 24.6066 11.3607 18.3568
122 41 2 -1.6322000000000001e+00 24.2736 12.1794 19.0839
123 41 1 8.1610000000000005e-01 25.4507 11.8226 19.118
124 42 1 8.1610000000000005e-01 13.0406 29.2608 8.87098
125 42 2 -1.6322000000000001e+00 13.9497 30.0134 9.06539
126 42 1 8.1610000000000005e-01 14.4744 29.1285 8.4993
127 43 1 8.1610000000000005e-01 31.1083 30.0346 29.3499
128 43 2 -1.6322000000000001e+00 31.5613 29.9768 30.3962
129 43 1 8.1610000000000005e-01 30.7275 29.2086 30.2556
130 44 1 8.1610000000000005e-01 13.6106 8.66734 19.1635
131 44 2 -1.6322000000000001e+00 14.7006 9.06232 19.1324
132 44 1 8.1610000000000005e-01 14.0749 10.0546 18.871
133 45 1 8.1610000000000005e-01 1.08368 6.94215 19.7859
134 45 2 -1.6322000000000001e+00 1.88758 6.26105 20.1267
135 45 1 8.1610000000000005e-01 0.852927 5.59358 19.8356
136 46 1 8.1610000000000005e-01 27.0595 24.3004 0.649114
137 46 2 -1.6322000000000001e+00 28.0203 23.5399 0.863973
138 46 1 8.1610000000000005e-01 27.2616 23.6947 -0.0772125
139 47 1 8.1610000000000005e-01 10.2137 29.2003 -0.911813
140 47 2 -1.6322000000000001e+00 9.47111 29.3041 -1.85472
141 47 1 8.1610000000000005e-01 10.4164 30.0457 -1.48742
142 48 1 8.1610000000000005e-01 24.9814 32.9094 23.7515
143 48 2 -1.6322000000000001e+00 24.6691 33.2636 22.6465
144 48 1 8.1610000000000005e-01 25.7553 33.5605 22.7287
145 49 1 8.1610000000000005e-01 6.04787 6.01104 14.3403
146 49 2 -1.6322000000000001e+00 4.92291 6.03084 14.6459
147 49 1 8.1610000000000005e-01 5.20396 6.94148 13.8256
148 50 1 8.1610000000000005e-01 15.5708 11.0894 11.6967
149 50 2 -1.6322000000000001e+00 14.5412 10.4874 11.529
150 50 1 8.1610000000000005e-01 14.5951 11.4395 10.8008
151 51 1 8.1610000000000005e-01 22.384 17.2105 26.8286
152 51 2 -1.6322000000000001e+00 23.2284 17.8536 26.2517
153 51 1 8.1610000000000005e-01 23.602 17.4526 27.262
154 52 1 8.1610000000000005e-01 11.765 5.6941 17.0045
155 52 2 -1.6322000000000001e+00 11.6345 6.95658 17.2158
156 52 1 8.1610000000000005e-01 10.891 6.02207 17.3711
157 53 1 8.1610000000000005e-01 28.1436 7.22291 24.3166
158 53 2 -1.6322000000000001e+00 27.9673 7.00493 23.1863
159 53 1 8.1610000000000005e-01 27.2093 6.2013 23.6318
160 54 1 8.1610000000000005e-01 28.7557 14.2308 25.1239
161 54 2 -1.6322000000000001e+00 27.9882 14.0391 24.2008
162 54 1 8.1610000000000005e-01 27.3544 14.192 25.1549
163 55 1 8.1610000000000005e-01 32.4938 30.3163 25.6538
164 55 2 -1.6322000000000001e+00 31.7236 31.0774 26.0968
165 55 1 8.1610000000000005e-01 32.9174 30.8892 26.6031
166 56 1 8.1610000000000005e-01 3.48869 4.77264 32.2332
167 56 2 -1.6322000000000001e+00 4.07946 5.51483 32.9708
168 56 1 8.1610000000000005e-01 3.09178 5.70523 32.2888
169 57 1 8.1610000000000005e-01 12.0505 10.4441 6.43766
170 57 2 -1.6322000000000001e+00 11.515 11.4343 6.90876
171 57 1 8.1610000000000005e-01 11.49 11.7408 5.78835
172 58 1 8.1610000000000005e-01 3.23705 13.0649 20.4999
173 58 2 -1.6322000000000001e+00 2.16237 13.008 20.9305
174 58 1 8.1610000000000005e-01 35.9501 14.0595 20.5717
175 59 1 8.1610000000000005e-01 8.79585 16.4782 5.76187
176 59 2 -1.6322000000000001e+00 8.15389 17.5269 6.16339
177 59 1 8.1610000000000005e-01 8.71579 16.6902 6.85022
178 60 1 8.1610000000000005e-01 18.8579 25.2093 14.7155
179 60 2 -1.6322000000000001e+00 19.1598 24.7815 15.7629
180 60 1 8.1610000000000005e-01 19.037 24.0706 14.7685
181 61 1 8.1610000000000005e-01 29.8805 22.8227 3.81393
182 61 2 -1.6322000000000001e+00 30.9155 22.4855 4.37045
183 61 1 8.1610000000000005e-01 30.4316 21.9768 3.31662
184 62 1 8.1610000000000005e-01 28.3616 25.8127 15.2234
185 62 2 -1.6322000000000001e+00 29.0151 25.8173 16.2733
186 62 1 8.1610000000000005e-01 27.793 25.8798 16.3182
187 63 1 8.1610000000000005e-01 24.6283 25.9812 11.1943
188 63 2 -1.6322000000000001e+00 25.3337 25.0643 11.4672
189 63 1 8.1610000000000005e-01 25.7134 26.0306 12.0203
190 64 1 8.1610000000000005e-01 1.76325 25.5451 32.3315
191 64 2 -1.6322000000000001e+00 35.9948 25.2214 31.5217
192 64 1 8.1610000000000005e-01 36.421 26.0866 32.2787
193 65 1 8.1610000000000005e-01 23.5097 1.35238 31.8505
194 65 2 -1.6322000000000001e+00 23.756 0.948951 30.762
195 65 1 8.1610000000000005e-01 24.085 0.594171 31.903
196 66 1 8.1610000000000005e-01 30.5395 1.43128 22.4365
197 66 2 -1.6322000000000001e+00 31.2934 1.98987 23.2039
198 66 1 8.1610000000000005e-01 30.6618 0.944929 23.2426
199 67 1 8.1610000000000005e-01 23.6948 22.3936 22.319
200 67 2 -1.6322000000000001e+00 23.0096 23.3159 22.474
201 67 1 8.1610000000000005e-01 23.0274 22.7342 23.4961
202 68 1 8.1610000000000005e-01 8.91505 5.73482 7.52032
203 68 2 -1.6322000000000001e+00 8.22437 6.53246 6.9549
204 68 1 8.1610000000000005e-01 9.07429 5.74012 6.56779
205 69 1 8.1610000000000005e-01 6.58237 30.9913 5.69281
206 69 2 -1.6322000000000001e+00 6.82457 31.7228 6.44825
207 69 1 8.1610000000000005e-01 7.41262 31.0219 7.03778
208 70 1 8.1610000000000005e-01 14.3892 28.8324 25.7949
209 70 2 -1.6322000000000001e+00 14.9918 27.9248 26.0548
210 70 1 8.1610000000000005e-01 15.3771 28.4596 25.0678
211 71 1 8.1610000000000005e-01 10.6642 3.41879 30.9243
212 71 2 -1.6322000000000001e+00 10.9192 3.22677 29.7863
213 71 1 8.1610000000000005e-01 10.9832 4.29363 30.4446
214 72 1 8.1610000000000005e-01 32.5034 33.1652 17.0743
215 72 2 -1.6322000000000001e+00 31.6501 32.5611 17.3267
216 72 1 8.1610000000000005e-01 32.7097 32.1659 17.1961
217 73 1 8.1610000000000005e-01 22.9979 21.6758 2.12882
218 73 2 -1.6322000000000001e+00 22.2011 21.3649 1.26078
219 73 1 8.1610000000000005e-01 22.4236 22.4742 1.6639
220 74 1 8.1610000000000005e-01 7.00798 20.7963 26.3817
221 74 2 -1.6322000000000001e+00 6.38235 20.6611 27.4487
222 74 1 8.1610000000000005e-01 6.14651 19.6964 26.796
223 75 1 8.1610000000000005e-01 3.77832 6.15057 0.730232
224 75 2 -1.6322000000000001e+00 3.46565 6.82775 1.5837
225 75 1 8.1610000000000005e-01 3.75519 5.76313 2.12273
226 76 1 8.1610000000000005e-01 0.267717 31.6991 12.4888
227 76 2 -1.6322000000000001e+00 0.982095 32.7072 12.7588
228 76 1 8.1610000000000005e-01 0.761977 31.9768 13.733
229 77 1 8.1610000000000005e-01 5.25411 4.00944 19.4787
230 77 2 -1.6322000000000001e+00 5.61135 3.17528 18.6731
231 77 1 8.1610000000000005e-01 4.81223 2.65754 19.4124
232 78 1 8.1610000000000005e-01 23.1427 0.0374745 4.01453
233 78 2 -1.6322000000000001e+00 23.2793 32.6934 3.16694
234 78 1 8.1610000000000005e-01 23.3419 33.747 2.57132
235 79 1 8.1610000000000005e-01 26.8948 2.03861 9.40782
236 79 2 -1.6322000000000001e+00 26.6054 1.15741 8.58348
237 79 1 8.1610000000000005e-01 26.2683 2.3548 8.56268
238 80 1 8.1610000000000005e-01 6.9947 15.0328 29.4794
239 80 2 -1.6322000000000001e+00 7.35812 15.3402 30.571
240 80 1 8.1610000000000005e-01 7.60609 15.7686 29.5183
241 81 1 8.1610000000000005e-01 1.6045 32.7273 20.3345
242 81 2 -1.6322000000000001e+00 2.45931 33.244 19.6399
243 81 1 8.1610000000000005e-01 2.4272 32.4288 20.5814
244 82 1 8.1610000000000005e-01 20.5917 14.7059 11.9742
245 82 2 -1.6322000000000001e+00 20.9789 13.6936 11.7403
246 82 1 8.1610000000000005e-01 19.7541 13.437 11.6613
247 83 1 8.1610000000000005e-01 5.77389 16.759 31.079
248 83 2 -1.6322000000000001e+00 6.46945 17.175 31.8983
249 83 1 8.1610000000000005e-01 6.84601 16.2703 31.3732
250 84 1 8.1610000000000005e-01 4.22203 26.4449 29.867
251 84 2 -1.6322000000000001e+00 5.15887 26.4182 30.5213
252 84 1 8.1610000000000005e-01 4.84412 25.2782 30.4573
253 85 1 8.1610000000000005e-01 12.367 22.007 15.0622
254 85 2 -1.6322000000000001e+00 13.4091 22.0082 15.7268
255 85 1 8.1610000000000005e-01 12.3477 21.4095 15.8435
256 86 1 8.1610000000000005e-01 22.1633 2.13911 20.9388
257 86 2 -1.6322000000000001e+00 22.0814 1.56074 19.8198
258 86 1 8.1610000000000005e-01 22.2576 1.00557 20.9032
259 87 1 8.1610000000000005e-01 10.1312 26.5034 29.243
260 87 2 -1.6322000000000001e+00 10.7575 25.6863 28.6568
261 87 1 8.1610000000000005e-01 9.7824 25.3966 29.2814
262 88 1 8.1610000000000005e-01 26.3415 26.0387 19.6458
263 88 2 -1.6322000000000001e+00 25.5706 26.8196 19.9008
264 88 1 8.1610000000000005e-01 25.4831 26.1658 18.9109
265 89 1 8.1610000000000005e-01 18.8377 5.04984 4.61532
266 89 2 -1.6322000000000001e+00 18.133 5.66938 3.89999
267 89 1 8.1610000000000005e-01 18.9939 6.46685 4.13057
268 90 1 8.1610000000000005e-01 24.4347 6.38523 10.4391
269 90 2 -1.6322000000000001e+00 24.5296 5.90741 11.5616
270 90 1 8.1610000000000005e-01 24.9007 6.96016 11.2067
271 91 1 8.1610000000000005e-01 24.5581 -0.698028 8.1278
272 91 2 -1.6322000000000001e+00 23.9735 -0.386058 7.16239
273 91 1 8.1610000000000005e-01 23.4971 -1.47512 7.46308
274 92 1 8.1610000000000005e-01 7.11932 20.8676 0.330176
275 92 2 -1.6322000000000001e+00 7.77436 20.5938 1.3313
276 92 1 8.1610000000000005e-01 8.06778 21.6567 0.831129
277 93 1 8.1610000000000005e-01 11.1876 11.083 20.9232
278 93 2 -1.6322000000000001e+00 12.1886 11.7199 20.6994
279 93 1 8.1610000000000005e-01 12.121 11.836 21.7892
280 94 1 8.1610000000000005e-01 16.1131 27.7398 4.53642
281 94 2 -1.6322000000000001e+00 16.2656 27.5842 3.36911
282 94 1 8.1610000000000005e-01 15.506 26.9718 4.21919
283 95 1 8.1610000000000005e-01 25.263 3.46997 23.9034
284 95 2 -1.6322000000000001e+00 25.5802 3.31026 22.8011
285 95 1 8.1610000000000005e-01 26.0461 4.40222 23.1443
286 96 1 8.1610000000000005e-01 29.3984 23.0106 1.50359
287 96 2 -1.6322000000000001e+00 29.4028 22.6109 36.0299
288 96 1 8.1610000000000005e-01 28.4504 22.9784 35.4069
289 97 1 8.1610000000000005e-01 7.13824 32.9704 14.6062
290 97 2 -1.6322000000000001e+00 6.93486 32.2553 13.6861
291 97 1 8.1610000000000005e-01 7.52598 33.2263 13.4104
292 98 1 8.1610000000000005e-01 1.15312 26.5173 4.28357
293 98 2 -1.6322000000000001e+00 0.294398 26.3278 5.19695
294 98 1 8.1610000000000005e-01 0.85473 25.6055 4.34286
295 99 1 8.1610000000000005e-01 9.19355 22.5087 4.07639
296 99 2 -1.6322000000000001e+00 9.63752 21.4945 3.92791
297 99 1 8.1610000000000005e-01 8.60134 21.329 4.03419
298 100 1 8.1610000000000005e-01 29.5189 23.7251 7.60041
299 100 2 -1.6322000000000001e+00 30.7278 23.467 7.81431
300 100 1 8.1610000000000005e-01 29.7251 22.8092 7.99236
301 101 1 8.1610000000000005e-01 24.2645 27.423 6.31649
302 101 2 -1.6322000000000001e+00 23.1238 27.7976 6.18266
303 101 1 8.1610000000000005e-01 23.9894 27.9015 6.97481
304 102 1 8.1610000000000005e-01 11.8804 27.5965 24.4463
305 102 2 -1.6322000000000001e+00 11.8216 28.7181 24.7854
306 102 1 8.1610000000000005e-01 10.9112 28.1002 25.2153
307 103 1 8.1610000000000005e-01 21.4932 6.50742 25.9392
308 103 2 -1.6322000000000001e+00 21.1161 5.98756 26.9977
309 103 1 8.1610000000000005e-01 21.1484 7.16718 27.0153
310 104 1 8.1610000000000005e-01 26.6408 25.5406 14.9097
311 104 2 -1.6322000000000001e+00 27.5289 25.6676 14.2041
312 104 1 8.1610000000000005e-01 26.678 26.2978 13.7092
313 105 1 8.1610000000000005e-01 11.2114 8.46974 7.18628
314 105 2 -1.6322000000000001e+00 12.2057 9.1727 6.96712
315 105 1 8.1610000000000005e-01 12.7839 8.15092 6.84761
316 106 1 8.1610000000000005e-01 20.2559 4.49987 23.3576
317 106 2 -1.6322000000000001e+00 21.1875 3.89248 23.9043
318 106 1 8.1610000000000005e-01 20.5854 4.71897 24.4525
319 107 1 8.1610000000000005e-01 10.6896 29.2688 9.73771
320 107 2 -1.6322000000000001e+00 11.6112 28.9438 8.9798
321 107 1 8.1610000000000005e-01 11.0047 29.9583 8.94822
322 108 1 8.1610000000000005e-01 7.69357 0.810734 16.5764
323 108 2 -1.6322000000000001e+00 6.95282 0.399039 15.6868
324 108 1 8.1610000000000005e-01 6.5097 1.4131 16.2655
325 109 1 8.1610000000000005e-01 -0.0245958 21.519 1.33175
326 109 2 -1.6322000000000001e+00 0.887986 20.8397 1.85316
327 109 1 8.1610000000000005e-01 0.0305446 20.1363 1.34243
328 110 1 8.1610000000000005e-01 18.7242 20.1047 20.4121
329 110 2 -1.6322000000000001e+00 19.0692 19.1622 19.8432
330 110 1 8.1610000000000005e-01 18.0331 19.4239 20.3208
331 111 1 8.1610000000000005e-01 34.0418 27.669 28.3498
332 111 2 -1.6322000000000001e+00 34.176 28.1022 27.2658
333 111 1 8.1610000000000005e-01 33.2917 27.36 27.4844
334 112 1 8.1610000000000005e-01 22.5153 7.95338 14.6532
335 112 2 -1.6322000000000001e+00 22.613 8.5049 13.5342
336 112 1 8.1610000000000005e-01 21.7836 8.6836 14.416
337 113 1 8.1610000000000005e-01 5.18858 8.65288 12.2497
338 113 2 -1.6322000000000001e+00 4.83353 8.04441 13.15
339 113 1 8.1610000000000005e-01 4.35035 9.06393 13.4579
340 114 1 8.1610000000000005e-01 5.16038 2.36252 6.77904
341 114 2 -1.6322000000000001e+00 4.92829 1.26582 6.12705
342 114 1 8.1610000000000005e-01 4.3609 1.61785 7.12985
343 115 1 8.1610000000000005e-01 21.8718 11.4472 24.668
344 115 2 -1.6322000000000001e+00 21.8266 12.2446 25.6421
345 115 1 8.1610000000000005e-01 21.4717 12.4043 24.4554
346 116 1 8.1610000000000005e-01 25.7189 23.0075 30.4257
347 116 2 -1.6322000000000001e+00 26.8855 22.6501 30.1552
348 116 1 8.1610000000000005e-01 26.1757 23.1674 29.2634
349 117 1 8.1610000000000005e-01 2.03579 27.295 27.0875
350 117 2 -1.6322000000000001e+00 2.78751 26.5349 26.7965
351 117 1 8.1610000000000005e-01 2.94734 26.463 27.9106
352 118 1 8.1610000000000005e-01 25.4528 25.279 32.5984
353 118 2 -1.6322000000000001e+00 26.204 24.5094 -0.379456
354 118 1 8.1610000000000005e-01 25.5973 24.0812 -1.19726
355 119 1 8.1610000000000005e-01 10.7462 8.35371 11.3467
356 119 2 -1.6322000000000001e+00 10.5953 8.81114 12.4402
357 119 1 8.1610000000000005e-01 10.7109 9.83866 12.0023
358 120 1 8.1610000000000005e-01 1.368 7.35852 24.6341
359 120 2 -1.6322000000000001e+00 1.80106 8.20791 23.9914
360 120 1 8.1610000000000005e-01 0.937433 7.82662 23.3515
361 121 1 8.1610000000000005e-01 12.1613 0.631835 9.77539
362 121 2 -1.6322000000000001e+00 12.4358 0.473378 10.9192
363 121 1 8.1610000000000005e-01 13.2075 -0.264712 10.4906
364 122 1 8.1610000000000005e-01 10.8837 21.1251 4.03723
365 122 2 -1.6322000000000001e+00 12.0565 20.9576 4.3816
366 122 1 8.1610000000000005e-01 11.5975 20.102 3.66506
367 123 1 8.1610000000000005e-01 24.5084 24.2722 28.3143
368 123 2 -1.6322000000000001e+00 24.0459 25.3767 28.4274
369 123 1 8.1610000000000005e-01 23.7869 24.7968 27.4086
370 124 1 8.1610000000000005e-01 20.9214 24.9016 5.93677
371 124 2 -1.6322000000000001e+00 19.9773 24.8578 5.1871
372 124 1 8.1610000000000005e-01 20.0864 25.2287 6.28146
373 125 1 8.1610000000000005e-01 17.8458 20.8784 31.624
374 125 2 -1.6322000000000001e+00 16.8984 20.1557 31.8943
375 125 1 8.1610000000000005e-01 17.7231 20.065 32.7398
376 126 1 8.1610000000000005e-01 31.4571 25.5311 24.7683
377 126 2 -1.6322000000000001e+00 31.4326 26.1689 23.8081
378 126 1 8.1610000000000005e-01 31.8239 25.1476 23.3269
379 127 1 8.1610000000000005e-01 2.83451 7.83461 9.81836
380 127 2 -1.6322000000000001e+00 4.02542 7.98829 9.5778
381 127 1 8.1610000000000005e-01 3.30409 7.08897 9.70657
382 128 1 8.1610000000000005e-01 8.5192 10.0105 24.2368
383 128 2 -1.6322000000000001e+00 9.34634 9.61606 23.468
384 128 1 8.1610000000000005e-01 9.87206 10.0793 24.4737
385 129 1 8.1610000000000005e-01 22.5588 0.863481 5.90437
386 129 2 -1.6322000000000001e+00 21.7906 0.908872 6.7848
387 129 1 8.1610000000000005e-01 22.809 0.363991 7.02823
388 130 1 8.1610000000000005e-01 3.50947 16.9449 27.044
389 130 2 -1.6322000000000001e+00 3.99586 16.0439 27.7256
390 130 1 8.1610000000000005e-01 2.8977 16.6103 27.7191
391 131 1 8.1610000000000005e-01 1.53585 29.2301 23.1754
392 131 2 -1.6322000000000001e+00 0.750953 30.1718 23.1386
393 131 1 8.1610000000000005e-01 0.764584 29.9621 24.3552
394 132 1 8.1610000000000005e-01 11.9635 26.2447 29.0095
395 132 2 -1.6322000000000001e+00 12.7709 27.0645 29.2633
396 132 1 8.1610000000000005e-01 13.417 26.2942 28.6051
397 133 1 8.1610000000000005e-01 19.4955 16.6543 12.7594
398 133 2 -1.6322000000000001e+00 20.3858 15.9973 12.5385
399 133 1 8.1610000000000005e-01 20.1497 16.9774 12.0714
400 134 1 8.1610000000000005e-01 26.4109 21.7696 25.4626
401 134 2 -1.6322000000000001e+00 27.5537 22.0946 25.1725
402 134 1 8.1610000000000005e-01 26.8816 21.5604 24.3601
403 135 1 8.1610000000000005e-01 21.5955 15.8153 13.2456
404 135 2 -1.6322000000000001e+00 22.5142 15.2927 13.6011
405 135 1 8.1610000000000005e-01 22.4033 15.8221 14.6737
406 136 1 8.1610000000000005e-01 21.8583 30.7416 -0.518436
407 136 2 -1.6322000000000001e+00 21.973 29.6487 -0.100862
408 136 1 8.1610000000000005e-01 22.0166 30.4947 0.727122
409 137 1 8.1610000000000005e-01 6.94272 26.762 3.72554
410 137 2 -1.6322000000000001e+00 7.23065 25.979 2.84876
411 137 1 8.1610000000000005e-01 6.97615 27.1543 2.81625
412 138 1 8.1610000000000005e-01 22.1491 1.8138 25.421
413 138 2 -1.6322000000000001e+00 21.0553 1.59085 24.9443
414 138 1 8.1610000000000005e-01 21.2378 2.66935 24.5796
415 139 1 8.1610000000000005e-01 4.37187 13.9081 25.8835
416 139 2 -1.6322000000000001e+00 3.20962 14.1812 26.0447
417 139 1 8.1610000000000005e-01 3.67433 14.8176 26.8674
418 140 1 8.1610000000000005e-01 15.8943 13.1954 12.3444
419 140 2 -1.6322000000000001e+00 16.3275 12.2569 11.6888
420 140 1 8.1610000000000005e-01 15.5773 13.2135 11.2564
421 141 1 8.1610000000000005e-01 26.6117 8.49037 21.4469
422 141 2 -1.6322000000000001e+00 27.7109 8.9947 21.5958
423 141 1 8.1610000000000005e-01 27.4447 8.00567 22.2229
424 142 1 8.1610000000000005e-01 30.4745 32.0197 17.2602
425 142 2 -1.6322000000000001e+00 29.6425 31.2353 16.8265
426 142 1 8.1610000000000005e-01 29.1965 32.3522 16.8447
427 143 1 8.1610000000000005e-01 29.5758 23.6618 16.2035
428 143 2 -1.6322000000000001e+00 29.9645 23.5919 17.3771
429 143 1 8.1610000000000005e-01 29.4976 24.6897 16.8764
430 144 1 8.1610000000000005e-01 21.2542 21.729 8.73543
431 144 2 -1.6322000000000001e+00 21.0717 21.1601 9.79841
432 144 1 8.1610000000000005e-01 20.4728 20.4601 9.02601
433 145 1 8.1610000000000005e-01 25.5182 30.4433 7.51608
434 145 2 -1.6322000000000001e+00 25.4143 29.7667 8.47433
435 145 1 8.1610000000000005e-01 25.5118 30.8302 8.72756
436 146 1 8.1610000000000005e-01 18.3234 16.0248 29.9244
437 146 2 -1.6322000000000001e+00 19.1478 16.2868 30.7504
438 146 1 8.1610000000000005e-01 19.4939 15.5038 29.9044
439 147 1 8.1610000000000005e-01 13.6855 12.4787 8.05715
440 147 2 -1.6322000000000001e+00 14.5255 11.781 7.79087
441 147 1 8.1610000000000005e-01 14.5062 12.2851 8.9007
442 148 1 8.1610000000000005e-01 12.2246 28.1648 28.6604
443 148 2 -1.6322000000000001e+00 11.4398 28.9171 28.1286
444 148 1 8.1610000000000005e-01 10.8178 28.3577 28.9449
445 149 1 8.1610000000000005e-01 9.02144 5.02182 18.566
446 149 2 -1.6322000000000001e+00 8.93673 3.74532 18.6463
447 149 1 8.1610000000000005e-01 8.71704 4.7078 19.433
448 150 1 8.1610000000000005e-01 10.2711 22.7539 23.0325
449 150 2 -1.6322000000000001e+00 10.784 23.6771 23.654
450 150 1 8.1610000000000005e-01 11.1493 22.535 23.3826
451 151 1 8.1610000000000005e-01 30.8449 27.2756 30.2522
452 151 2 -1.6322000000000001e+00 29.9691 28.0906 30.1484
453 151 1 8.1610000000000005e-01 29.8747 27.5543 29.1306
454 152 1 8.1610000000000005e-01 16.9488 20.0974 11.6895
455 152 2 -1.6322000000000001e+00 18.0561 20.0095 12.1288
456 152 1 8.1610000000000005e-01 17.7875 21.1366 12.0163
457 153 1 8.1610000000000005e-01 27.9044 29.4731 5.94868
458 153 2 -1.6322000000000001e+00 28.1517 30.549 5.53079
459 153 1 8.1610000000000005e-01 27.238 30.6346 6.13577
460 154 1 8.1610000000000005e-01 32.0243 6.54234 27.7325
461 154 2 -1.6322000000000001e+00 30.8757 6.43746 27.7986
462 154 1 8.1610000000000005e-01 31.316 5.81146 26.8348
463 155 1 8.1610000000000005e-01 31.8805 15.7317 9.68513
464 155 2 -1.6322000000000001e+00 32.327 15.4411 10.78
465 155 1 8.1610000000000005e-01 31.8038 14.5285 10.1118
466 156 1 8.1610000000000005e-01 17.3844 19.1743 14.7741
467 156 2 -1.6322000000000001e+00 16.6785 18.412 14.2686
468 156 1 8.1610000000000005e-01 17.592 18.2422 15.0216
469 157 1 8.1610000000000005e-01 34.0692 9.77757 16.3245
470 157 2 -1.6322000000000001e+00 1.09738 9.73605 17.4864
471 157 1 8.1610000000000005e-01 0.10593 9.76928 17.8437
472 158 1 8.1610000000000005e-01 33.612 33.2995 15.6045
473 158 2 -1.6322000000000001e+00 33.8346 32.6818 16.5891
474 158 1 8.1610000000000005e-01 0.504972 31.9628 15.7397
475 159 1 8.1610000000000005e-01 0.685385 5.76762 28.5764
476 159 2 -1.6322000000000001e+00 1.18825 5.21263 29.3722
477 159 1 8.1610000000000005e-01 1.57388 4.76211 28.3797
478 160 1 8.1610000000000005e-01 21.0626 12.3097 26.7458
479 160 2 -1.6322000000000001e+00 20.6517 11.9288 27.8544
480 160 1 8.1610000000000005e-01 20.0803 12.6938 27.1022
481 161 1 8.1610000000000005e-01 7.3372 23.7745 3.23125
482 161 2 -1.6322000000000001e+00 6.26777 23.7057 2.80052
483 161 1 8.1610000000000005e-01 6.59859 24.8514 2.83713
484 162 1 8.1610000000000005e-01 21.6106 11.3879 5.28448
485 162 2 -1.6322000000000001e+00 21.5036 12.2212 6.14699
486 162 1 8.1610000000000005e-01 22.1177 12.1514 5.09591
487 163 1 8.1610000000000005e-01 21.165 27.0858 24.7669
488 163 2 -1.6322000000000001e+00 22.1172 26.4612 25.1359
489 163 1 8.1610000000000005e-01 22.3715 27.1611 24.1568
490 164 1 8.1610000000000005e-01 24.4999 4.75102 20.3589
491 164 2 -1.6322000000000001e+00 24.5052 5.93646 20.2386
492 164 1 8.1610000000000005e-01 24.0038 5.53402 19.3242
493 165 1 8.1610000000000005e-01 29.2267 17.1101 28.503
494 165 2 -1.6322000000000001e+00 29.5907 17.4479 29.5827
495 165 1 8.1610000000000005e-01 28.649 17.8241 29.0541
496 166 1 8.1610000000000005e-01 15.0323 18.2263 29.8304
497 166 2 -1.6322000000000001e+00 14.9048 17.1043 29.5639
498 166 1 8.1610000000000005e-01 14.7445 17.6273 28.5626
499 167 1 8.1610000000000005e-01 10.3493 18.94 2.19086
500 167 2 -1.6322000000000001e+00 11.0043 19.014 3.16131
501 167 1 8.1610000000000005e-01 9.81858 18.7808 3.44763
502 168 1 8.1610000000000005e-01 18.9694 20.7932 7.5191
503 168 2 -1.6322000000000001e+00 17.8796 21.0837 7.24158
504 168 1 8.1610000000000005e-01 17.9709 20.2033 8.14451
505 169 1 8.1610000000000005e-01 11.2499 25.5194 25.0921
506 169 2 -1.6322000000000001e+00 11.8404 26.2482 24.3257
507 169 1 8.1610000000000005e-01 12.7513 25.6958 24.9149
508 170 1 8.1610000000000005e-01 4.13071 0.131837 5.95548
509 170 2 -1.6322000000000001e+00 3.2246 -0.560311 6.00661
510 170 1 8.1610000000000005e-01 3.94408 -0.758719 5.11993
511 171 1 8.1610000000000005e-01 27.4398 13.9998 20.2527
512 171 2 -1.6322000000000001e+00 26.6162 14.6255 20.8851
513 171 1 8.1610000000000005e-01 26.8684 15.385 20.0322
514 172 1 8.1610000000000005e-01 24.1331 13.7807 12.7395
515 172 2 -1.6322000000000001e+00 24.5002 13.7694 13.869
516 172 1 8.1610000000000005e-01 23.7771 14.6345 13.8115
517 173 1 8.1610000000000005e-01 11.7838 25.1192 4.23676
518 173 2 -1.6322000000000001e+00 12.2284 26.0244 4.89435
519 173 1 8.1610000000000005e-01 11.0638 26.0071 4.42724
520 174 1 8.1610000000000005e-01 15.3317 31.7137 25.9391
521 174 2 -1.6322000000000001e+00 15.6418 30.8194 26.6434